VARIABLES=X/D,CP,MACH
ZONE T="BODY CP, MLOCAL AT MACH=  1.50 ALPHA= 0.0"
          0.530000      0.228817      1.225979
          0.559435      0.228817      1.225979
          0.588871      0.228817      1.225979
          0.618306      0.228817      1.225979
          0.647742      0.228817      1.225979
          0.677177      0.228817      1.225979
          0.706613      0.228817      1.225979
          0.736048      0.258195      1.200490
          0.765484      0.283774      1.178736
          0.794919      0.279697      1.182177
          0.824355      0.276333      1.185023
          0.853790      0.273559      1.187376
          0.883226      0.271270      1.189321
          0.912661      0.269382      1.190928
          0.942097      0.261082      1.198014
          0.971532      0.149447      1.297925
          1.000968      0.153456      1.294172
          1.030403      0.157082      1.290788
          1.059839      0.160363      1.287736
          1.089274      0.163332      1.284982
          1.118710      0.166018      1.282497
          1.148145      0.168448      1.280254
          1.177581      0.175210      1.274037
          1.207016      0.183729      1.266256
          1.236452      0.185151      1.264963
          1.265887      0.186432      1.263799
          1.295323      0.187588      1.262750
          1.324758      0.188630      1.261806
          1.354194      0.189569      1.260954
          1.383629      0.190416      1.260188
          1.413064      0.053062      1.392757
          1.442500      0.048259      1.397740
          1.471936      0.052191      1.393659
          1.501371      0.055874      1.389852
          1.530807      0.059322      1.386302
          1.560242      0.062552      1.382990
          1.589678      0.065576      1.379900
          1.619113      0.057772      1.387896
          1.648548      0.035230      1.411396
          1.677984      0.038377      1.408078
          1.707419      0.041342      1.404964
          1.736855      0.044134      1.402042
          1.766290      0.046763      1.399297
          1.795726      0.049240      1.396720
          1.825161      0.051573      1.394299
          1.854597     -0.054836      1.512083
          1.884032     -0.073500      1.534534
          1.913468     -0.069673      1.529880
          1.942903     -0.065997      1.525435
          1.972339     -0.062466      1.521187
          2.001774     -0.059074      1.517128
          2.031210     -0.055817      1.513247
          2.060645     -0.052687      1.509537
          2.090081     -0.049682      1.505988
          2.119516     -0.046795      1.502594
          2.148952     -0.044021      1.499347
          2.178387     -0.041358      1.496240
          2.207823     -0.038799      1.493266
          2.237258     -0.036341      1.490419
          2.266694     -0.033981      1.487693
          2.296129     -0.031713      1.485084
          2.325565     -0.029535      1.482585
          2.355000     -0.027443      1.480191
          2.355000     -0.123268      1.597643
          2.383702     -0.120007      1.593351
          2.412404     -0.116833      1.589195
          2.441107     -0.113742      1.585170
          2.469809     -0.110733      1.581271
          2.498511     -0.107804      1.577494
          2.527213     -0.104953      1.573833
          2.555915     -0.102176      1.570286
          2.584617     -0.099474      1.566848
          2.613319     -0.096842      1.563514
          2.642021     -0.094280      1.560282
          2.670723     -0.091787      1.557149
          2.699426     -0.089359      1.554109
          2.728128     -0.086995      1.551162
          2.756830     -0.084694      1.548302
          2.785532     -0.082453      1.545528
          2.814234     -0.080272      1.542836
          2.842936     -0.078149      1.540224
          2.871638     -0.076081      1.537689
          2.900341     -0.074069      1.535229
          2.929043     -0.072110      1.532841
          2.957745     -0.070202      1.530522
          2.986447     -0.068345      1.528272
          3.015149     -0.066537      1.526087
          3.043851     -0.064777      1.523965
          3.072553     -0.063064      1.521905
          3.101255     -0.061395      1.519904
          3.129958     -0.059771      1.517960
          3.158660     -0.058190      1.516073
          3.187362     -0.056651      1.514239
          3.216064     -0.055152      1.512458
          3.244766     -0.053693      1.510728
          3.273468     -0.052273      1.509047
          3.302170     -0.050890      1.507414
          3.330872     -0.049544      1.505827
          3.359575     -0.048234      1.504284
          3.388277     -0.046958      1.502786
          3.416979     -0.045716      1.501329
          3.445681     -0.044506      1.499914
          3.474383     -0.043329      1.498538
          3.503085     -0.042183      1.497201
          3.531787     -0.041067      1.495901
          3.560489     -0.039981      1.494638
          3.589191     -0.038923      1.493410
          3.617893     -0.037893      1.492216
          3.646596     -0.036891      1.491055
          3.675298     -0.035915      1.489926
          3.704000     -0.034965      1.488829
          3.732702     -0.034040      1.487762
          3.761404     -0.033140      1.486725
          3.790107     -0.032263      1.485716
          3.818809     -0.031410      1.484735
          3.847511     -0.030579      1.483782
          3.876213     -0.029770      1.482854
          3.904915     -0.028983      1.481952
          3.933617     -0.028216      1.481075
          3.962319     -0.027469      1.480222
          3.991021     -0.026743      1.479392
          4.019723     -0.026035      1.478585
          4.048426     -0.025347      1.477800
          4.077128     -0.024676      1.477036
          4.105830     -0.024023      1.476294
          4.134532     -0.023388      1.475571
          4.163234     -0.022769      1.474869
          4.191936     -0.022167      1.474185
          4.220638     -0.021581      1.473520
          4.249341     -0.021010      1.472873
          4.278042     -0.020454      1.472244
          4.306745     -0.019913      1.471632
          4.335447     -0.019386      1.471036
          4.364149     -0.018873      1.470457
          4.392851     -0.018374      1.469893
          4.421553     -0.017888      1.469345
          4.450255     -0.017415      1.468811
          4.478958     -0.016954      1.468292
          4.507659     -0.016506      1.467787
          4.536362     -0.016069      1.467295
          4.565064     -0.015644      1.466817
          4.593766     -0.015230      1.466352
          4.622468     -0.014827      1.465899
          4.651170     -0.014435      1.465458
          4.679872     -0.014053      1.465030
          4.708575     -0.013682      1.464612
          4.737277     -0.013320      1.464207
          4.765979     -0.012967      1.463812
          4.794681     -0.012624      1.463427
          4.823383     -0.012290      1.463053
          4.852085     -0.011965      1.462689
          4.880787     -0.011649      1.462335
          4.909489     -0.011341      1.461990
          4.938191     -0.011041      1.461655
          4.966894     -0.010749      1.461329
          4.995595     -0.010464      1.461011
          5.024298     -0.010187      1.460702
          5.053000     -0.009918      1.460401
          5.081702     -0.009656      1.460108
          5.110404     -0.009400      1.459823
          5.139106     -0.009152      1.459545
          5.167809     -0.008909      1.459276
          5.196510     -0.008674      1.459013
          5.225213     -0.008444      1.458757
          5.253915     -0.008221      1.458508
          5.282617     -0.008003      1.458266
          5.311319     -0.007792      1.458030
          5.340021     -0.007586      1.457801
          5.368723     -0.007385      1.457578
          5.397426     -0.007190      1.457360
          5.426127     -0.006999      1.457149
          5.454830     -0.006814      1.456943
          5.483531     -0.006634      1.456742
          5.512234     -0.006459      1.456547
          5.540936     -0.006288      1.456357
          5.569638     -0.006121      1.456173
          5.598341     -0.005959      1.455993
          5.627042     -0.005802      1.455818
          5.655745     -0.005648      1.455647
          5.684446     -0.005499      1.455481
          5.713149     -0.005353      1.455320
          5.741851     -0.005212      1.455163
          5.770553     -0.005074      1.455010
          5.799255     -0.004940      1.454861
          5.827957     -0.004809      1.454716
          5.856659     -0.004682      1.454575
          5.885362     -0.004558      1.454438
          5.914064     -0.004437      1.454304
          5.942766     -0.004320      1.454174
          5.971468     -0.004206      1.454047
          6.000170     -0.004095      1.453924
          6.028872     -0.003986      1.453804
          6.057574     -0.003881      1.453687
          6.086277     -0.003778      1.453573
          6.114978     -0.003678      1.453463
          6.143681     -0.003581      1.453355
          6.172382     -0.003486      1.453250
          6.201085     -0.003394      1.453148
          6.229787     -0.003304      1.453049
          6.258489     -0.003217      1.452952
          6.287191     -0.003132      1.452858
          6.315893     -0.003049      1.452766
          6.344596     -0.002968      1.452677
          6.373298     -0.002890      1.452590
          6.402000     -0.002813      1.452505
          6.430702     -0.002739      1.452423
          6.459404     -0.002666      1.452343
          6.488106     -0.002596      1.452265
          6.516809     -0.002527      1.452189
          6.545511     -0.002460      1.452115
          6.574213     -0.002395      1.452043
          6.602915     -0.002332      1.451973
          6.631617     -0.002270      1.451905
          6.660319     -0.002210      1.451838
          6.689021     -0.002152      1.451774
          6.717723     -0.002095      1.451711
          6.746425     -0.002039      1.451650
          6.775127     -0.001985      1.451590
          6.803829     -0.001933      1.451532
          6.832532     -0.001882      1.451476
          6.861234     -0.001832      1.451421
          6.889936     -0.001784      1.451367
          6.918638     -0.001736      1.451315
          6.947340     -0.001690      1.451264
          6.976043     -0.001646      1.451215
          7.004744     -0.001602      1.451167
          7.033447     -0.001560      1.451120
          7.062149     -0.001519      1.451074
          7.090851     -0.001478      1.451030
          7.119553     -0.001439      1.450987
          7.148255     -0.001401      1.450945
          7.176957     -0.001364      1.450904
          7.205659     -0.001328      1.450864
          7.234362     -0.001293      1.450825
          7.263063     -0.001259      1.450787
          7.291766     -0.001225      1.450751
          7.320467     -0.001193      1.450715
          7.349170     -0.001161      1.450680
          7.377872     -0.001131      1.450646
          7.406574     -0.001101      1.450613
          7.435276     -0.001072      1.450581
          7.463978     -0.001043      1.450550
          7.492680     -0.001016      1.450519
          7.521383     -0.000989      1.450490
          7.550085     -0.000963      1.450461
          7.578787     -0.000937      1.450433
          7.607489     -0.000912      1.450405
          7.636191     -0.000888      1.450379
          7.664894     -0.000865      1.450353
          7.693595     -0.000842      1.450327
          7.722298     -0.000820      1.450303
          7.750999     -0.000798      1.450279
          7.779702     -0.000777      1.450256
          7.808403     -0.000756      1.450233
          7.837106     -0.000736      1.450211
          7.865808     -0.000717      1.450189
          7.894510     -0.000698      1.450168
          7.923213     -0.000679      1.450148
          7.951914     -0.000661      1.450128
          7.980617     -0.000644      1.450109
          8.009318     -0.000627      1.450090
          8.038021     -0.000610      1.450072
          8.066723     -0.000594      1.450054
          8.095426     -0.000578      1.450037
          8.124127     -0.000563      1.450020
          8.152829     -0.000548      1.450003
          8.181531     -0.000534      1.449987
          8.210234     -0.000520      1.449972
          8.238936     -0.000506      1.449957
          8.267638     -0.000493      1.449942
          8.296340     -0.000479      1.449927
          8.325042     -0.000467      1.449914
          8.353745     -0.000454      1.449900
          8.382446     -0.000442      1.449887
          8.411149     -0.000431      1.449874
          8.439851     -0.000419      1.449861
          8.468553     -0.000408      1.449849
          8.497254     -0.000397      1.449837
          8.525957     -0.000387      1.449825
          8.554660     -0.000377      1.449814
          8.583362     -0.000367      1.449803
          8.612063     -0.000357      1.449792
          8.640765     -0.000348      1.449782
          8.669468     -0.000338      1.449772
          8.698170     -0.443860      2.237707
          8.726872     -0.455516      2.277926
          8.755574     -0.451726      2.264568
          8.784276     -0.447968      2.251593
          8.812978     -0.444240      2.238981
          8.841681     -0.440544      2.226715
          8.870383     -0.436878      2.214778
          8.899085     -0.433244      2.203158
          8.927787     -0.429639      2.191838
          8.956489     -0.426064      2.180805
          8.985191     -0.422519      2.170048
          9.013893     -0.419003      2.159555
          9.042596     -0.415517      2.149315
          9.071298     -0.412060      2.139317
          9.099999     -0.408631      2.129553
          9.099999     -0.408631      2.129553
          0.190000      0.030834      1.416051
ZONE T="BODY CP, MLOCAL AT MACH=  1.50 ALPHA= 0.0"
ZONE T="BODY CP, MLOCAL AT MACH=  2.30 ALPHA= 0.0"
          0.530000      0.178576      1.621831
          0.559435      0.178576      1.621831
          0.588871      0.178576      1.621831
          0.618306      0.178576      1.621831
          0.647742      0.178576      1.621831
          0.677177      0.178576      1.621831
          0.706613      0.178576      1.621831
          0.736048      0.193400      1.599935
          0.765484      0.206582      1.580965
          0.794919      0.205864      1.581987
          0.824355      0.205335      1.582740
          0.853790      0.204946      1.583295
          0.883226      0.204660      1.583703
          0.912661      0.204449      1.584004
          0.942097      0.200884      1.589109
          0.971532      0.143251      1.676676
          1.000968      0.144409      1.674814
          1.030403      0.145340      1.673319
          1.059839      0.146088      1.672121
          1.089274      0.146690      1.671158
          1.118710      0.147174      1.670385
          1.148145      0.147563      1.669765
          1.177581      0.150280      1.665442
          1.207016      0.153990      1.659579
          1.236452      0.154085      1.659429
          1.265887      0.154157      1.659316
          1.295323      0.154211      1.659231
          1.324758      0.154252      1.659167
          1.354194      0.154283      1.659118
          1.383629      0.154306      1.659081
          1.413064      0.080464      1.785434
          1.442500      0.076734      1.792440
          1.471936      0.077775      1.790479
          1.501371      0.078699      1.788741
          1.530807      0.079520      1.787201
          1.560242      0.080250      1.785836
          1.589678      0.080898      1.784624
          1.619113      0.075762      1.794278
          1.648548      0.062595      1.819644
          1.677984      0.063308      1.818247
          1.707419      0.063953      1.816986
          1.736855      0.064536      1.815846
          1.766290      0.065065      1.814816
          1.795726      0.065543      1.813884
          1.825161      0.065976      1.813043
          1.854597      0.008239      1.935393
          1.884032     -0.002737      1.961348
          1.913468     -0.001639      1.958706
          1.942903     -0.000596      1.956205
          1.972339      0.000395      1.953839
          2.001774      0.001336      1.951599
          2.031210      0.002230      1.949478
          2.060645      0.003080      1.947469
          2.090081      0.003886      1.945567
          2.119516      0.004653      1.943765
          2.148952      0.005380      1.942058
          2.178387      0.006072      1.940440
          2.207823      0.006728      1.938907
          2.237258      0.007352      1.937455
          2.266694      0.007945      1.936077
          2.296129      0.008507      1.934772
          2.325565      0.009042      1.933534
          2.355000      0.009550      1.932361
          2.355000     -0.040072      2.058015
          2.383702     -0.039083      2.055264
          2.412404     -0.038119      2.052592
          2.441107     -0.037178      2.049997
          2.469809     -0.036261      2.047475
          2.498511     -0.035366      2.045025
          2.527213     -0.034493      2.042644
          2.555915     -0.033642      2.040330
          2.584617     -0.032812      2.038081
          2.613319     -0.032002      2.035895
          2.642021     -0.031212      2.033769
          2.670723     -0.030442      2.031703
          2.699426     -0.029691      2.029694
          2.728128     -0.028958      2.027740
          2.756830     -0.028243      2.025840
          2.785532     -0.027546      2.023992
          2.814234     -0.026867      2.022195
          2.842936     -0.026204      2.020447
          2.871638     -0.025557      2.018746
          2.900341     -0.024926      2.017092
          2.929043     -0.024311      2.015482
          2.957745     -0.023711      2.013916
          2.986447     -0.023126      2.012391
          3.015149     -0.022556      2.010908
          3.043851     -0.021999      2.009465
          3.072553     -0.021456      2.008060
          3.101255     -0.020927      2.006693
          3.129958     -0.020410      2.005362
          3.158660     -0.019907      2.004067
          3.187362     -0.019415      2.002806
          3.216064     -0.018936      2.001578
          3.244766     -0.018469      2.000383
          3.273468     -0.018013      1.999220
          3.302170     -0.017569      1.998087
          3.330872     -0.017135      1.996984
          3.359575     -0.016712      1.995910
          3.388277     -0.016300      1.994864
          3.416979     -0.015898      1.993845
          3.445681     -0.015505      1.992853
          3.474383     -0.015123      1.991887
          3.503085     -0.014749      1.990946
          3.531787     -0.014385      1.990030
          3.560489     -0.014030      1.989138
          3.589191     -0.013684      1.988268
          3.617893     -0.013347      1.987421
          3.646596     -0.013017      1.986596
          3.675298     -0.012696      1.985793
          3.704000     -0.012383      1.985010
          3.732702     -0.012077      1.984248
          3.761404     -0.011779      1.983505
          3.790107     -0.011488      1.982781
          3.818809     -0.011205      1.982076
          3.847511     -0.010928      1.981389
          3.876213     -0.010659      1.980719
          3.904915     -0.010396      1.980067
          3.933617     -0.010139      1.979431
          3.962319     -0.009889      1.978812
          3.991021     -0.009645      1.978209
          4.019723     -0.009407      1.977620
          4.048426     -0.009175      1.977047
          4.077128     -0.008948      1.976489
          4.105830     -0.008728      1.975945
          4.134532     -0.008512      1.975414
          4.163234     -0.008302      1.974898
          4.191936     -0.008097      1.974394
          4.220638     -0.007897      1.973903
          4.249341     -0.007703      1.973424
          4.278042     -0.007512      1.972958
          4.306745     -0.007327      1.972504
          4.335447     -0.007146      1.972061
          4.364149     -0.006970      1.971629
          4.392851     -0.006798      1.971208
          4.421553     -0.006630      1.970798
          4.450255     -0.006467      1.970398
          4.478958     -0.006307      1.970008
          4.507659     -0.006151      1.969628
          4.536362     -0.006000      1.969258
          4.565064     -0.005851      1.968897
          4.593766     -0.005707      1.968545
          4.622468     -0.005566      1.968202
          4.651170     -0.005429      1.967867
          4.679872     -0.005295      1.967541
          4.708575     -0.005164      1.967224
          4.737277     -0.005037      1.966914
          4.765979     -0.004913      1.966612
          4.794681     -0.004791      1.966317
          4.823383     -0.004673      1.966030
          4.852085     -0.004558      1.965750
          4.880787     -0.004445      1.965477
          4.909489     -0.004336      1.965211
          4.938191     -0.004229      1.964952
          4.966894     -0.004124      1.964699
          4.995595     -0.004022      1.964453
          5.024298     -0.003923      1.964212
          5.053000     -0.003826      1.963978
          5.081702     -0.003732      1.963750
          5.110404     -0.003640      1.963527
          5.139106     -0.003550      1.963310
          5.167809     -0.003462      1.963098
          5.196510     -0.003377      1.962891
          5.225213     -0.003294      1.962690
          5.253915     -0.003212      1.962494
          5.282617     -0.003133      1.962302
          5.311319     -0.003056      1.962116
          5.340021     -0.002980      1.961934
          5.368723     -0.002907      1.961756
          5.397426     -0.002835      1.961583
          5.426127     -0.002765      1.961415
          5.454830     -0.002697      1.961250
          5.483531     -0.002630      1.961090
          5.512234     -0.002565      1.960934
          5.540936     -0.002502      1.960781
          5.569638     -0.002440      1.960632
          5.598341     -0.002380      1.960487
          5.627042     -0.002321      1.960346
          5.655745     -0.002264      1.960208
          5.684446     -0.002208      1.960074
          5.713149     -0.002154      1.959943
          5.741851     -0.002101      1.959815
          5.770553     -0.002049      1.959690
          5.799255     -0.001998      1.959568
          5.827957     -0.001949      1.959450
          5.856659     -0.001901      1.959334
          5.885362     -0.001854      1.959222
          5.914064     -0.001808      1.959112
          5.942766     -0.001764      1.959004
          5.971468     -0.001720      1.958900
          6.000170     -0.001678      1.958798
          6.028872     -0.001636      1.958699
          6.057574     -0.001596      1.958602
          6.086277     -0.001556      1.958507
          6.114978     -0.001518      1.958415
          6.143681     -0.001481      1.958325
          6.172382     -0.001444      1.958237
          6.201085     -0.001408      1.958152
          6.229787     -0.001374      1.958068
          6.258489     -0.001340      1.957987
          6.287191     -0.001307      1.957908
          6.315893     -0.001274      1.957831
          6.344596     -0.001243      1.957755
          6.373298     -0.001212      1.957682
          6.402000     -0.001182      1.957610
          6.430702     -0.001153      1.957540
          6.459404     -0.001125      1.957472
          6.488106     -0.001097      1.957405
          6.516809     -0.001070      1.957340
          6.545511     -0.001044      1.957277
          6.574213     -0.001018      1.957215
          6.602915     -0.000993      1.957155
          6.631617     -0.000968      1.957096
          6.660319     -0.000944      1.957039
          6.689021     -0.000921      1.956983
          6.717723     -0.000898      1.956929
          6.746425     -0.000876      1.956876
          6.775127     -0.000854      1.956824
          6.803829     -0.000833      1.956774
          6.832532     -0.000813      1.956725
          6.861234     -0.000793      1.956676
          6.889936     -0.000773      1.956630
          6.918638     -0.000754      1.956584
          6.947340     -0.000736      1.956539
          6.976043     -0.000717      1.956496
          7.004744     -0.000700      1.956454
          7.033447     -0.000682      1.956412
          7.062149     -0.000666      1.956372
          7.090851     -0.000649      1.956333
          7.119553     -0.000633      1.956294
          7.148255     -0.000617      1.956257
          7.176957     -0.000602      1.956221
          7.205659     -0.000587      1.956185
          7.234362     -0.000573      1.956150
          7.263063     -0.000559      1.956117
          7.291766     -0.000545      1.956084
          7.320467     -0.000532      1.956051
          7.349170     -0.000518      1.956020
          7.377872     -0.000506      1.955989
          7.406574     -0.000493      1.955960
          7.435276     -0.000481      1.955930
          7.463978     -0.000469      1.955902
          7.492680     -0.000458      1.955874
          7.521383     -0.000446      1.955847
          7.550085     -0.000435      1.955821
          7.578787     -0.000424      1.955795
          7.607489     -0.000414      1.955770
          7.636191     -0.000404      1.955746
          7.664894     -0.000394      1.955722
          7.693595     -0.000384      1.955699
          7.722298     -0.000375      1.955676
          7.750999     -0.000365      1.955654
          7.779702     -0.000356      1.955633
          7.808403     -0.000348      1.955612
          7.837106     -0.000339      1.955591
          7.865808     -0.000331      1.955571
          7.894510     -0.000322      1.955552
          7.923213     -0.000315      1.955533
          7.951914     -0.000307      1.955514
          7.980617     -0.000299      1.955496
          8.009318     -0.000292      1.955478
          8.038021     -0.000285      1.955461
          8.066723     -0.000278      1.955444
          8.095426     -0.000271      1.955428
          8.124127     -0.000264      1.955412
          8.152829     -0.000258      1.955396
          8.181531     -0.000251      1.955381
          8.210234     -0.000245      1.955366
          8.238936     -0.000239      1.955352
          8.267638     -0.000233      1.955338
          8.296340     -0.000227      1.955324
          8.325042     -0.000222      1.955311
          8.353745     -0.000216      1.955298
          8.382446     -0.000211      1.955285
          8.411149     -0.000206      1.955272
          8.439851     -0.000201      1.955260
          8.468553     -0.000196      1.955249
          8.497254     -0.000191      1.955237
          8.525957     -0.000186      1.955226
          8.554660     -0.000182      1.955215
          8.583362     -0.000177      1.955204
          8.612063     -0.000173      1.955194
          8.640765     -0.000168      1.955184
          8.669468     -0.000164      1.955174
          8.698170     -0.205883      2.880955
          8.726872     -0.211048      2.936425
          8.755574     -0.209900      2.923666
          8.784276     -0.208759      2.911230
          8.812978     -0.207624      2.899103
          8.841681     -0.206495      2.887270
          8.870383     -0.205372      2.875720
          8.899085     -0.204255      2.864441
          8.927787     -0.203145      2.853423
          8.956489     -0.202040      2.842654
          8.985191     -0.200941      2.832125
          9.013893     -0.199849      2.821826
          9.042596     -0.198762      2.811750
          9.071298     -0.197681      2.801888
          9.099999     -0.196606      2.792232
          9.099999     -0.196606      2.792232
          0.190000      0.024956      1.897682
ZONE T="BODY CP, MLOCAL AT MACH=  2.30 ALPHA= 0.0"
ZONE T="BODY CP, MLOCAL AT MACH=  4.63 ALPHA= 0.0"
          0.530000      0.140941      2.090521
          0.559435      0.140941      2.090521
          0.588871      0.140941      2.090521
          0.618306      0.140941      2.090521
          0.647742      0.140941      2.090521
          0.677177      0.140941      2.090521
          0.706613      0.140941      2.090521
          0.736048      0.148818      2.066664
          0.765484      0.159894      2.034519
          0.794919      0.159894      2.034519
          0.824355      0.159894      2.034519
          0.853790      0.159894      2.034519
          0.883226      0.159894      2.034519
          0.912661      0.159894      2.034519
          0.942097      0.160549      2.032664
          0.971532      0.115614      2.173753
          1.000968      0.115614      2.173753