VARIABLES=X/D,CP(0),CP(30),CP(60),CP(90),CP(120),CP(150),CP(180)
ZONE T="BODY CP AT MACH=  1.50 ALPHA=  0.00"
      0.530000   0.22882   0.22882   0.22882   0.22882   0.22882   0.22882   0.22882
      0.559435   0.22882   0.22882   0.22882   0.22882   0.22882   0.22882   0.22882
      0.588871   0.22882   0.22882   0.22882   0.22882   0.22882   0.22882   0.22882
      0.618306   0.22882   0.22882   0.22882   0.22882   0.22882   0.22882   0.22882
      0.647742   0.22882   0.22882   0.22882   0.22882   0.22882   0.22882   0.22882
      0.677177   0.22882   0.22882   0.22882   0.22882   0.22882   0.22882   0.22882
      0.706613   0.22882   0.22882   0.22882   0.22882   0.22882   0.22882   0.22882
      0.736048   0.25820   0.25820   0.25820   0.25820   0.25820   0.25820   0.25820
      0.765484   0.28377   0.28377   0.28377   0.28377   0.28377   0.28377   0.28377
      0.794919   0.27970   0.27970   0.27970   0.27970   0.27970   0.27970   0.27970
      0.824355   0.27633   0.27633   0.27633   0.27633   0.27633   0.27633   0.27633
      0.853790   0.27356   0.27356   0.27356   0.27356   0.27356   0.27356   0.27356
      0.883226   0.27127   0.27127   0.27127   0.27127   0.27127   0.27127   0.27127
      0.912661   0.26938   0.26938   0.26938   0.26938   0.26938   0.26938   0.26938
      0.942097   0.26108   0.26108   0.26108   0.26108   0.26108   0.26108   0.26108
      0.971532   0.14945   0.14945   0.14945   0.14945   0.14945   0.14945   0.14945
      1.000968   0.15346   0.15346   0.15346   0.15346   0.15346   0.15346   0.15346
      1.030403   0.15708   0.15708   0.15708   0.15708   0.15708   0.15708   0.15708
      1.059839   0.16036   0.16036   0.16036   0.16036   0.16036   0.16036   0.16036
      1.089274   0.16333   0.16333   0.16333   0.16333   0.16333   0.16333   0.16333
      1.118710   0.16602   0.16602   0.16602   0.16602   0.16602   0.16602   0.16602
      1.148145   0.16845   0.16845   0.16845   0.16845   0.16845   0.16845   0.16845
      1.177581   0.17521   0.17521   0.17521   0.17521   0.17521   0.17521   0.17521
      1.207016   0.18373   0.18373   0.18373   0.18373   0.18373   0.18373   0.18373
      1.236452   0.18515   0.18515   0.18515   0.18515   0.18515   0.18515   0.18515
      1.265887   0.18643   0.18643   0.18643   0.18643   0.18643   0.18643   0.18643
      1.295323   0.18759   0.18759   0.18759   0.18759   0.18759   0.18759   0.18759
      1.324758   0.18863   0.18863   0.18863   0.18863   0.18863   0.18863   0.18863
      1.354194   0.18957   0.18957   0.18957   0.18957   0.18957   0.18957   0.18957
      1.383629   0.19042   0.19042   0.19042   0.19042   0.19042   0.19042   0.19042
      1.413064   0.05306   0.05306   0.05306   0.05306   0.05306   0.05306   0.05306
      1.442500   0.04826   0.04826   0.04826   0.04826   0.04826   0.04826   0.04826
      1.471936   0.05219   0.05219   0.05219   0.05219   0.05219   0.05219   0.05219
      1.501371   0.05587   0.05587   0.05587   0.05587   0.05587   0.05587   0.05587
      1.530807   0.05932   0.05932   0.05932   0.05932   0.05932   0.05932   0.05932
      1.560242   0.06255   0.06255   0.06255   0.06255   0.06255   0.06255   0.06255
      1.589678   0.06558   0.06558   0.06558   0.06558   0.06558   0.06558   0.06558
      1.619113   0.05777   0.05777   0.05777   0.05777   0.05777   0.05777   0.05777
      1.648548   0.03523   0.03523   0.03523   0.03523   0.03523   0.03523   0.03523
      1.677984   0.03838   0.03838   0.03838   0.03838   0.03838   0.03838   0.03838
      1.707419   0.04134   0.04134   0.04134   0.04134   0.04134   0.04134   0.04134
      1.736855   0.04413   0.04413   0.04413   0.04413   0.04413   0.04413   0.04413
      1.766290   0.04676   0.04676   0.04676   0.04676   0.04676   0.04676   0.04676
      1.795726   0.04924   0.04924   0.04924   0.04924   0.04924   0.04924   0.04924
      1.825161   0.05157   0.05157   0.05157   0.05157   0.05157   0.05157   0.05157
      1.854597  -0.05484  -0.05484  -0.05484  -0.05484  -0.05484  -0.05484  -0.05484
      1.884032  -0.07350  -0.07350  -0.07350  -0.07350  -0.07350  -0.07350  -0.07350
      1.913468  -0.06967  -0.06967  -0.06967  -0.06967  -0.06967  -0.06967  -0.06967
      1.942903  -0.06600  -0.06600  -0.06600  -0.06600  -0.06600  -0.06600  -0.06600
      1.972339  -0.06247  -0.06247  -0.06247  -0.06247  -0.06247  -0.06247  -0.06247
      2.001774  -0.05907  -0.05907  -0.05907  -0.05907  -0.05907  -0.05907  -0.05907
      2.031210  -0.05582  -0.05582  -0.05582  -0.05582  -0.05582  -0.05582  -0.05582
      2.060645  -0.05269  -0.05269  -0.05269  -0.05269  -0.05269  -0.05269  -0.05269
      2.090081  -0.04968  -0.04968  -0.04968  -0.04968  -0.04968  -0.04968  -0.04968
      2.119516  -0.04679  -0.04679  -0.04679  -0.04679  -0.04679  -0.04679  -0.04679
      2.148952  -0.04402  -0.04402  -0.04402  -0.04402  -0.04402  -0.04402  -0.04402
      2.178387  -0.04136  -0.04136  -0.04136  -0.04136  -0.04136  -0.04136  -0.04136
      2.207823  -0.03880  -0.03880  -0.03880  -0.03880  -0.03880  -0.03880  -0.03880
      2.237258  -0.03634  -0.03634  -0.03634  -0.03634  -0.03634  -0.03634  -0.03634
      2.266694  -0.03398  -0.03398  -0.03398  -0.03398  -0.03398  -0.03398  -0.03398
      2.296129  -0.03171  -0.03171  -0.03171  -0.03171  -0.03171  -0.03171  -0.03171
      2.325565  -0.02953  -0.02953  -0.02953  -0.02953  -0.02953  -0.02953  -0.02953
      2.355000  -0.02744  -0.02744  -0.02744  -0.02744  -0.02744  -0.02744  -0.02744
      2.355000  -0.12327  -0.12327  -0.12327  -0.12327  -0.12327  -0.12327  -0.12327
      2.383702  -0.12001  -0.12001  -0.12001  -0.12001  -0.12001  -0.12001  -0.12001
      2.412404  -0.11683  -0.11683  -0.11683  -0.11683  -0.11683  -0.11683  -0.11683
      2.441107  -0.11374  -0.11374  -0.11374  -0.11374  -0.11374  -0.11374  -0.11374
      2.469809  -0.11073  -0.11073  -0.11073  -0.11073  -0.11073  -0.11073  -0.11073
      2.498511  -0.10780  -0.10780  -0.10780  -0.10780  -0.10780  -0.10780  -0.10780
      2.527213  -0.10495  -0.10495  -0.10495  -0.10495  -0.10495  -0.10495  -0.10495
      2.555915  -0.10218  -0.10218  -0.10218  -0.10218  -0.10218  -0.10218  -0.10218
      2.584617  -0.09947  -0.09947  -0.09947  -0.09947  -0.09947  -0.09947  -0.09947
      2.613319  -0.09684  -0.09684  -0.09684  -0.09684  -0.09684  -0.09684  -0.09684
      2.642021  -0.09428  -0.09428  -0.09428  -0.09428  -0.09428  -0.09428  -0.09428
      2.670723  -0.09179  -0.09179  -0.09179  -0.09179  -0.09179  -0.09179  -0.09179
      2.699426  -0.08936  -0.08936  -0.08936  -0.08936  -0.08936  -0.08936  -0.08936
      2.728128  -0.08699  -0.08699  -0.08699  -0.08699  -0.08699  -0.08699  -0.08699
      2.756830  -0.08469  -0.08469  -0.08469  -0.08469  -0.08469  -0.08469  -0.08469
      2.785532  -0.08245  -0.08245  -0.08245  -0.08245  -0.08245  -0.08245  -0.08245
      2.814234  -0.08027  -0.08027  -0.08027  -0.08027  -0.08027  -0.08027  -0.08027
      2.842936  -0.07815  -0.07815  -0.07815  -0.07815  -0.07815  -0.07815  -0.07815
      2.871638  -0.07608  -0.07608  -0.07608  -0.07608  -0.07608  -0.07608  -0.07608
      2.900341  -0.07407  -0.07407  -0.07407  -0.07407  -0.07407  -0.07407  -0.07407
      2.929043  -0.07211  -0.07211  -0.07211  -0.07211  -0.07211  -0.07211  -0.07211
      2.957745  -0.07020  -0.07020  -0.07020  -0.07020  -0.07020  -0.07020  -0.07020
      2.986447  -0.06835  -0.06835  -0.06835  -0.06835  -0.06835  -0.06835  -0.06835
      3.015149  -0.06654  -0.06654  -0.06654  -0.06654  -0.06654  -0.06654  -0.06654
      3.043851  -0.06478  -0.06478  -0.06478  -0.06478  -0.06478  -0.06478  -0.06478
      3.072553  -0.06306  -0.06306  -0.06306  -0.06306  -0.06306  -0.06306  -0.06306
      3.101255  -0.06140  -0.06140  -0.06140  -0.06140  -0.06140  -0.06140  -0.06140
      3.129958  -0.05977  -0.05977  -0.05977  -0.05977  -0.05977  -0.05977  -0.05977
      3.158660  -0.05819  -0.05819  -0.05819  -0.05819  -0.05819  -0.05819  -0.05819
      3.187362  -0.05665  -0.05665  -0.05665  -0.05665  -0.05665  -0.05665  -0.05665
      3.216064  -0.05515  -0.05515  -0.05515  -0.05515  -0.05515  -0.05515  -0.05515
      3.244766  -0.05369  -0.05369  -0.05369  -0.05369  -0.05369  -0.05369  -0.05369
      3.273468  -0.05227  -0.05227  -0.05227  -0.05227  -0.05227  -0.05227  -0.05227
      3.302170  -0.05089  -0.05089  -0.05089  -0.05089  -0.05089  -0.05089  -0.05089
      3.330872  -0.04954  -0.04954  -0.04954  -0.04954  -0.04954  -0.04954  -0.04954
      3.359575  -0.04823  -0.04823  -0.04823  -0.04823  -0.04823  -0.04823  -0.04823
      3.388277  -0.04696  -0.04696  -0.04696  -0.04696  -0.04696  -0.04696  -0.04696
      3.416979  -0.04572  -0.04572  -0.04572  -0.04572  -0.04572  -0.04572  -0.04572
      3.445681  -0.04451  -0.04451  -0.04451  -0.04451  -0.04451  -0.04451  -0.04451
      3.474383  -0.04333  -0.04333  -0.04333  -0.04333  -0.04333  -0.04333  -0.04333
      3.503085  -0.04218  -0.04218  -0.04218  -0.04218  -0.04218  -0.04218  -0.04218
      3.531787  -0.04107  -0.04107  -0.04107  -0.04107  -0.04107  -0.04107  -0.04107
      3.560489  -0.03998  -0.03998  -0.03998  -0.03998  -0.03998  -0.03998  -0.03998
      3.589191  -0.03892  -0.03892  -0.03892  -0.03892  -0.03892  -0.03892  -0.03892
      3.617893  -0.03789  -0.03789  -0.03789  -0.03789  -0.03789  -0.03789  -0.03789
      3.646596  -0.03689  -0.03689  -0.03689  -0.03689  -0.03689  -0.03689  -0.03689
      3.675298  -0.03592  -0.03592  -0.03592  -0.03592  -0.03592  -0.03592  -0.03592
      3.704000  -0.03497  -0.03497  -0.03497  -0.03497  -0.03497  -0.03497  -0.03497
      3.732702  -0.03404  -0.03404  -0.03404  -0.03404  -0.03404  -0.03404  -0.03404
      3.761404  -0.03314  -0.03314  -0.03314  -0.03314  -0.03314  -0.03314  -0.03314
      3.790107  -0.03226  -0.03226  -0.03226  -0.03226  -0.03226  -0.03226  -0.03226
      3.818809  -0.03141  -0.03141  -0.03141  -0.03141  -0.03141  -0.03141  -0.03141
      3.847511  -0.03058  -0.03058  -0.03058  -0.03058  -0.03058  -0.03058  -0.03058
      3.876213  -0.02977  -0.02977  -0.02977  -0.02977  -0.02977  -0.02977  -0.02977
      3.904915  -0.02898  -0.02898  -0.02898  -0.02898  -0.02898  -0.02898  -0.02898
      3.933617  -0.02822  -0.02822  -0.02822  -0.02822  -0.02822  -0.02822  -0.02822
      3.962319  -0.02747  -0.02747  -0.02747  -0.02747  -0.02747  -0.02747  -0.02747
      3.991021  -0.02674  -0.02674  -0.02674  -0.02674  -0.02674  -0.02674  -0.02674
      4.019723  -0.02604  -0.02604  -0.02604  -0.02604  -0.02604  -0.02604  -0.02604
      4.048426  -0.02535  -0.02535  -0.02535  -0.02535  -0.02535  -0.02535  -0.02535
      4.077128  -0.02468  -0.02468  -0.02468  -0.02468  -0.02468  -0.02468  -0.02468
      4.105830  -0.02402  -0.02402  -0.02402  -0.02402  -0.02402  -0.02402  -0.02402
      4.134532  -0.02339  -0.02339  -0.02339  -0.02339  -0.02339  -0.02339  -0.02339
      4.163234  -0.02277  -0.02277  -0.02277  -0.02277  -0.02277  -0.02277  -0.02277
      4.191936  -0.02217  -0.02217  -0.02217  -0.02217  -0.02217  -0.02217  -0.02217
      4.220638  -0.02158  -0.02158  -0.02158  -0.02158  -0.02158  -0.02158  -0.02158
      4.249341  -0.02101  -0.02101  -0.02101  -0.02101  -0.02101  -0.02101  -0.02101
      4.278042  -0.02045  -0.02045  -0.02045  -0.02045  -0.02045  -0.02045  -0.02045
      4.306745  -0.01991  -0.01991  -0.01991  -0.01991  -0.01991  -0.01991  -0.01991
      4.335447  -0.01939  -0.01939  -0.01939  -0.01939  -0.01939  -0.01939  -0.01939
      4.364149  -0.01887  -0.01887  -0.01887  -0.01887  -0.01887  -0.01887  -0.01887
      4.392851  -0.01837  -0.01837  -0.01837  -0.01837  -0.01837  -0.01837  -0.01837
      4.421553  -0.01789  -0.01789  -0.01789  -0.01789  -0.01789  -0.01789  -0.01789
      4.450255  -0.01741  -0.01741  -0.01741  -0.01741  -0.01741  -0.01741  -0.01741
      4.478958  -0.01695  -0.01695  -0.01695  -0.01695  -0.01695  -0.01695  -0.01695
      4.507659  -0.01651  -0.01651  -0.01651  -0.01651  -0.01651  -0.01651  -0.01651
      4.536362  -0.01607  -0.01607  -0.01607  -0.01607  -0.01607  -0.01607  -0.01607
      4.565064  -0.01564  -0.01564  -0.01564  -0.01564  -0.01564  -0.01564  -0.01564
      4.593766  -0.01523  -0.01523  -0.01523  -0.01523  -0.01523  -0.01523  -0.01523
      4.622468  -0.01483  -0.01483  -0.01483  -0.01483  -0.01483  -0.01483  -0.01483
      4.651170  -0.01444  -0.01444  -0.01444  -0.01444  -0.01444  -0.01444  -0.01444
      4.679872  -0.01405  -0.01405  -0.01405  -0.01405  -0.01405  -0.01405  -0.01405
      4.708575  -0.01368  -0.01368  -0.01368  -0.01368  -0.01368  -0.01368  -0.01368
      4.737277  -0.01332  -0.01332  -0.01332  -0.01332  -0.01332  -0.01332  -0.01332
      4.765979  -0.01297  -0.01297  -0.01297  -0.01297  -0.01297  -0.01297  -0.01297
      4.794681  -0.01262  -0.01262  -0.01262  -0.01262  -0.01262  -0.01262  -0.01262
      4.823383  -0.01229  -0.01229  -0.01229  -0.01229  -0.01229  -0.01229  -0.01229
      4.852085  -0.01197  -0.01197  -0.01197  -0.01197  -0.01197  -0.01197  -0.01197
      4.880787  -0.01165  -0.01165  -0.01165  -0.01165  -0.01165  -0.01165  -0.01165
      4.909489  -0.01134  -0.01134  -0.01134  -0.01134  -0.01134  -0.01134  -0.01134
      4.938191  -0.01104  -0.01104  -0.01104  -0.01104  -0.01104  -0.01104  -0.01104
      4.966894  -0.01075  -0.01075  -0.01075  -0.01075  -0.01075  -0.01075  -0.01075
      4.995595  -0.01046  -0.01046  -0.01046  -0.01046  -0.01046  -0.01046  -0.01046
      5.024298  -0.01019  -0.01019  -0.01019  -0.01019  -0.01019  -0.01019  -0.01019
      5.053000  -0.00992  -0.00992  -0.00992  -0.00992  -0.00992  -0.00992  -0.00992
      5.081702  -0.00966  -0.00966  -0.00966  -0.00966  -0.00966  -0.00966  -0.00966
      5.110404  -0.00940  -0.00940  -0.00940  -0.00940  -0.00940  -0.00940  -0.00940
      5.139106  -0.00915  -0.00915  -0.00915  -0.00915  -0.00915  -0.00915  -0.00915
      5.167809  -0.00891  -0.00891  -0.00891  -0.00891  -0.00891  -0.00891  -0.00891
      5.196510  -0.00867  -0.00867  -0.00867  -0.00867  -0.00867  -0.00867  -0.00867
      5.225213  -0.00844  -0.00844  -0.00844  -0.00844  -0.00844  -0.00844  -0.00844
      5.253915  -0.00822  -0.00822  -0.00822  -0.00822  -0.00822  -0.00822  -0.00822
      5.282617  -0.00800  -0.00800  -0.00800  -0.00800  -0.00800  -0.00800  -0.00800
      5.311319  -0.00779  -0.00779  -0.00779  -0.00779  -0.00779  -0.00779  -0.00779
      5.340021  -0.00759  -0.00759  -0.00759  -0.00759  -0.00759  -0.00759  -0.00759
      5.368723  -0.00738  -0.00738  -0.00738  -0.00738  -0.00738  -0.00738  -0.00738
      5.397426  -0.00719  -0.00719  -0.00719  -0.00719  -0.00719  -0.00719  -0.00719
      5.426127  -0.00700  -0.00700  -0.00700  -0.00700  -0.00700  -0.00700  -0.00700
      5.454830  -0.00681  -0.00681  -0.00681  -0.00681  -0.00681  -0.00681  -0.00681
      5.483531  -0.00663  -0.00663  -0.00663  -0.00663  -0.00663  -0.00663  -0.00663
      5.512234  -0.00646  -0.00646  -0.00646  -0.00646  -0.00646  -0.00646  -0.00646
      5.540936  -0.00629  -0.00629  -0.00629  -0.00629  -0.00629  -0.00629  -0.00629
      5.569638  -0.00612  -0.00612  -0.00612  -0.00612  -0.00612  -0.00612  -0.00612
      5.598341  -0.00596  -0.00596  -0.00596  -0.00596  -0.00596  -0.00596  -0.00596
      5.627042  -0.00580  -0.00580  -0.00580  -0.00580  -0.00580  -0.00580  -0.00580
      5.655745  -0.00565  -0.00565  -0.00565  -0.00565  -0.00565  -0.00565  -0.00565
      5.684446  -0.00550  -0.00550  -0.00550  -0.00550  -0.00550  -0.00550  -0.00550
      5.713149  -0.00535  -0.00535  -0.00535  -0.00535  -0.00535  -0.00535  -0.00535
      5.741851  -0.00521  -0.00521  -0.00521  -0.00521  -0.00521  -0.00521  -0.00521
      5.770553  -0.00507  -0.00507  -0.00507  -0.00507  -0.00507  -0.00507  -0.00507
      5.799255  -0.00494  -0.00494  -0.00494  -0.00494  -0.00494  -0.00494  -0.00494
      5.827957  -0.00481  -0.00481  -0.00481  -0.00481  -0.00481  -0.00481  -0.00481
      5.856659  -0.00468  -0.00468  -0.00468  -0.00468  -0.00468  -0.00468  -0.00468
      5.885362  -0.00456  -0.00456  -0.00456  -0.00456  -0.00456  -0.00456  -0.00456
      5.914064  -0.00444  -0.00444  -0.00444  -0.00444  -0.00444  -0.00444  -0.00444
      5.942766  -0.00432  -0.00432  -0.00432  -0.00432  -0.00432  -0.00432  -0.00432
      5.971468  -0.00421  -0.00421  -0.00421  -0.00421  -0.00421  -0.00421  -0.00421
      6.000170  -0.00409  -0.00409  -0.00409  -0.00409  -0.00409  -0.00409  -0.00409
      6.028872  -0.00399  -0.00399  -0.00399  -0.00399  -0.00399  -0.00399  -0.00399
      6.057574  -0.00388  -0.00388  -0.00388  -0.00388  -0.00388  -0.00388  -0.00388
      6.086277  -0.00378  -0.00378  -0.00378  -0.00378  -0.00378  -0.00378  -0.00378
      6.114978  -0.00368  -0.00368  -0.00368  -0.00368  -0.00368  -0.00368  -0.00368
      6.143681  -0.00358  -0.00358  -0.00358  -0.00358  -0.00358  -0.00358  -0.00358
      6.172382  -0.00349  -0.00349  -0.00349  -0.00349  -0.00349  -0.00349  -0.00349
      6.201085  -0.00339  -0.00339  -0.00339  -0.00339  -0.00339  -0.00339  -0.00339
      6.229787  -0.00330  -0.00330  -0.00330  -0.00330  -0.00330  -0.00330  -0.00330
      6.258489  -0.00322  -0.00322  -0.00322  -0.00322  -0.00322  -0.00322  -0.00322
      6.287191  -0.00313  -0.00313  -0.00313  -0.00313  -0.00313  -0.00313  -0.00313
      6.315893  -0.00305  -0.00305  -0.00305  -0.00305  -0.00305  -0.00305  -0.00305
      6.344596  -0.00297  -0.00297  -0.00297  -0.00297  -0.00297  -0.00297  -0.00297
      6.373298  -0.00289  -0.00289  -0.00289  -0.00289  -0.00289  -0.00289  -0.00289
      6.402000  -0.00281  -0.00281  -0.00281  -0.00281  -0.00281  -0.00281  -0.00281
      6.430702  -0.00274  -0.00274  -0.00274  -0.00274  -0.00274  -0.00274  -0.00274
      6.459404  -0.00267  -0.00267  -0.00267  -0.00267  -0.00267  -0.00267  -0.00267
      6.488106  -0.00260  -0.00260  -0.00260  -0.00260  -0.00260  -0.00260  -0.00260
      6.516809  -0.00253  -0.00253  -0.00253  -0.00253  -0.00253  -0.00253  -0.00253
      6.545511  -0.00246  -0.00246  -0.00246  -0.00246  -0.00246  -0.00246  -0.00246
      6.574213  -0.00240  -0.00240  -0.00240  -0.00240  -0.00240  -0.00240  -0.00240
      6.602915  -0.00233  -0.00233  -0.00233  -0.00233  -0.00233  -0.00233  -0.00233
      6.631617  -0.00227  -0.00227  -0.00227  -0.00227  -0.00227  -0.00227  -0.00227
      6.660319  -0.00221  -0.00221  -0.00221  -0.00221  -0.00221  -0.00221  -0.00221
      6.689021  -0.00215  -0.00215  -0.00215  -0.00215  -0.00215  -0.00215  -0.00215
      6.717723  -0.00209  -0.00209  -0.00209  -0.00209  -0.00209  -0.00209  -0.00209
      6.746425  -0.00204  -0.00204  -0.00204  -0.00204  -0.00204  -0.00204  -0.00204
      6.775127  -0.00199  -0.00199  -0.00199  -0.00199  -0.00199  -0.00199  -0.00199
      6.803829  -0.00193  -0.00193  -0.00193  -0.00193  -0.00193  -0.00193  -0.00193
      6.832532  -0.00188  -0.00188  -0.00188  -0.00188  -0.00188  -0.00188  -0.00188
      6.861234  -0.00183  -0.00183  -0.00183  -0.00183  -0.00183  -0.00183  -0.00183
      6.889936  -0.00178  -0.00178  -0.00178  -0.00178  -0.00178  -0.00178  -0.00178
      6.918638  -0.00174  -0.00174  -0.00174  -0.00174  -0.00174  -0.00174  -0.00174
      6.947340  -0.00169  -0.00169  -0.00169  -0.00169  -0.00169  -0.00169  -0.00169
      6.976043  -0.00165  -0.00165  -0.00165  -0.00165  -0.00165  -0.00165  -0.00165
      7.004744  -0.00160  -0.00160  -0.00160  -0.00160  -0.00160  -0.00160  -0.00160
      7.033447  -0.00156  -0.00156  -0.00156  -0.00156  -0.00156  -0.00156  -0.00156
      7.062149  -0.00152  -0.00152  -0.00152  -0.00152  -0.00152  -0.00152  -0.00152
      7.090851  -0.00148  -0.00148  -0.00148  -0.00148  -0.00148  -0.00148  -0.00148
      7.119553  -0.00144  -0.00144  -0.00144  -0.00144  -0.00144  -0.00144  -0.00144
      7.148255  -0.00140  -0.00140  -0.00140  -0.00140  -0.00140  -0.00140  -0.00140
      7.176957  -0.00136  -0.00136  -0.00136  -0.00136  -0.00136  -0.00136  -0.00136
      7.205659  -0.00133  -0.00133  -0.00133  -0.00133  -0.00133  -0.00133  -0.00133
      7.234362  -0.00129  -0.00129  -0.00129  -0.00129  -0.00129  -0.00129  -0.00129
      7.263063  -0.00126  -0.00126  -0.00126  -0.00126  -0.00126  -0.00126  -0.00126
      7.291766  -0.00123  -0.00123  -0.00123  -0.00123  -0.00123  -0.00123  -0.00123
      7.320467  -0.00119  -0.00119  -0.00119  -0.00119  -0.00119  -0.00119  -0.00119
      7.349170  -0.00116  -0.00116  -0.00116  -0.00116  -0.00116  -0.00116  -0.00116
      7.377872  -0.00113  -0.00113  -0.00113  -0.00113  -0.00113  -0.00113  -0.00113
      7.406574  -0.00110  -0.00110  -0.00110  -0.00110  -0.00110  -0.00110  -0.00110
      7.435276  -0.00107  -0.00107  -0.00107  -0.00107  -0.00107  -0.00107  -0.00107
      7.463978  -0.00104  -0.00104  -0.00104  -0.00104  -0.00104  -0.00104  -0.00104
      7.492680  -0.00102  -0.00102  -0.00102  -0.00102  -0.00102  -0.00102  -0.00102
      7.521383  -0.00099  -0.00099  -0.00099  -0.00099  -0.00099  -0.00099  -0.00099
      7.550085  -0.00096  -0.00096  -0.00096  -0.00096  -0.00096  -0.00096  -0.00096
      7.578787  -0.00094  -0.00094  -0.00094  -0.00094  -0.00094  -0.00094  -0.00094
      7.607489  -0.00091  -0.00091  -0.00091  -0.00091  -0.00091  -0.00091  -0.00091
      7.636191  -0.00089  -0.00089  -0.00089  -0.00089  -0.00089  -0.00089  -0.00089
      7.664894  -0.00086  -0.00086  -0.00086  -0.00086  -0.00086  -0.00086  -0.00086
      7.693595  -0.00084  -0.00084  -0.00084  -0.00084  -0.00084  -0.00084  -0.00084
      7.722298  -0.00082  -0.00082  -0.00082  -0.00082  -0.00082  -0.00082  -0.00082
      7.750999  -0.00080  -0.00080  -0.00080  -0.00080  -0.00080  -0.00080  -0.00080
      7.779702  -0.00078  -0.00078  -0.00078  -0.00078  -0.00078  -0.00078  -0.00078
      7.808403  -0.00076  -0.00076  -0.00076  -0.00076  -0.00076  -0.00076  -0.00076
      7.837106  -0.00074  -0.00074  -0.00074  -0.00074  -0.00074  -0.00074  -0.00074
      7.865808  -0.00072  -0.00072  -0.00072  -0.00072  -0.00072  -0.00072  -0.00072
      7.894510  -0.00070  -0.00070  -0.00070  -0.00070  -0.00070  -0.00070  -0.00070
      7.923213  -0.00068  -0.00068  -0.00068  -0.00068  -0.00068  -0.00068  -0.00068
      7.951914  -0.00066  -0.00066  -0.00066  -0.00066  -0.00066  -0.00066  -0.00066
      7.980617  -0.00064  -0.00064  -0.00064  -0.00064  -0.00064  -0.00064  -0.00064
      8.009318  -0.00063  -0.00063  -0.00063  -0.00063  -0.00063  -0.00063  -0.00063
      8.038021  -0.00061  -0.00061  -0.00061  -0.00061  -0.00061  -0.00061  -0.00061
      8.066723  -0.00059  -0.00059  -0.00059  -0.00059  -0.00059  -0.00059  -0.00059
      8.095426  -0.00058  -0.00058  -0.00058  -0.00058  -0.00058  -0.00058  -0.00058
      8.124127  -0.00056  -0.00056  -0.00056  -0.00056  -0.00056  -0.00056  -0.00056
      8.152829  -0.00055  -0.00055  -0.00055  -0.00055  -0.00055  -0.00055  -0.00055
      8.181531  -0.00053  -0.00053  -0.00053  -0.00053  -0.00053  -0.00053  -0.00053
      8.210234  -0.00052  -0.00052  -0.00052  -0.00052  -0.00052  -0.00052  -0.00052
      8.238936  -0.00051  -0.00051  -0.00051  -0.00051  -0.00051  -0.00051  -0.00051
      8.267638  -0.00049  -0.00049  -0.00049  -0.00049  -0.00049  -0.00049  -0.00049
      8.296340  -0.00048  -0.00048  -0.00048  -0.00048  -0.00048  -0.00048  -0.00048
      8.325042  -0.00047  -0.00047  -0.00047  -0.00047  -0.00047  -0.00047  -0.00047
      8.353745  -0.00045  -0.00045  -0.00045  -0.00045  -0.00045  -0.00045  -0.00045
      8.382446  -0.00044  -0.00044  -0.00044  -0.00044  -0.00044  -0.00044  -0.00044
      8.411149  -0.00043  -0.00043  -0.00043  -0.00043  -0.00043  -0.00043  -0.00043
      8.439851  -0.00042  -0.00042  -0.00042  -0.00042  -0.00042  -0.00042  -0.00042
      8.468553  -0.00041  -0.00041  -0.00041  -0.00041  -0.00041  -0.00041  -0.00041
      8.497254  -0.00040  -0.00040  -0.00040  -0.00040  -0.00040  -0.00040  -0.00040
      8.525957  -0.00039  -0.00039  -0.00039  -0.00039  -0.00039  -0.00039  -0.00039
      8.554660  -0.00038  -0.00038  -0.00038  -0.00038  -0.00038  -0.00038  -0.00038
      8.583362  -0.00037  -0.00037  -0.00037  -0.00037  -0.00037  -0.00037  -0.00037
      8.612063  -0.00036  -0.00036  -0.00036  -0.00036  -0.00036  -0.00036  -0.00036
      8.640765  -0.00035  -0.00035  -0.00035  -0.00035  -0.00035  -0.00035  -0.00035
      8.669468  -0.00034  -0.00034  -0.00034  -0.00034  -0.00034  -0.00034  -0.00034
      8.698170  -0.44386  -0.44386  -0.44386  -0.44386  -0.44386  -0.44386  -0.44386
      8.726872  -0.45552  -0.45552  -0.45552  -0.45552  -0.45552  -0.45552  -0.45552
      8.755574  -0.45173  -0.45173  -0.45173  -0.45173  -0.45173  -0.45173  -0.45173
      8.784276  -0.44797  -0.44797  -0.44797  -0.44797  -0.44797  -0.44797  -0.44797
      8.812978  -0.44424  -0.44424  -0.44424  -0.44424  -0.44424  -0.44424  -0.44424
      8.841681  -0.44054  -0.44054  -0.44054  -0.44054  -0.44054  -0.44054  -0.44054
      8.870383  -0.43688  -0.43688  -0.43688  -0.43688  -0.43688  -0.43688  -0.43688
      8.899085  -0.43324  -0.43324  -0.43324  -0.43324  -0.43324  -0.43324  -0.43324
      8.927787  -0.42964  -0.42964  -0.42964  -0.42964  -0.42964  -0.42964  -0.42964
      8.956489  -0.42606  -0.42606  -0.42606  -0.42606  -0.42606  -0.42606  -0.42606
      8.985191  -0.42252  -0.42252  -0.42252  -0.42252  -0.42252  -0.42252  -0.42252
      9.013893  -0.41900  -0.41900  -0.41900  -0.41900  -0.41900  -0.41900  -0.41900
      9.042596  -0.41552  -0.41552  -0.41552  -0.41552  -0.41552  -0.41552  -0.41552
      9.071298  -0.41206  -0.41206  -0.41206  -0.41206  -0.41206  -0.41206  -0.41206
      9.099999  -0.40863  -0.40863  -0.40863  -0.40863  -0.40863  -0.40863  -0.40863
      9.099999  -0.40863  -0.40863  -0.40863  -0.40863  -0.40863  -0.40863  -0.40863
      0.190000   0.03083   0.03083   0.03083   0.03083   0.03083   0.03083   0.03083
ZONE T="BODY CP AT MACH=  1.50 ALPHA=  8.00"
      0.530000   0.11800   0.11811   0.13105   0.17864   0.26077   0.34278   0.37742
      0.559435   0.11800   0.11811   0.13105   0.17864   0.26077   0.34278   0.37742
      0.588871   0.11800   0.11811   0.13105   0.17864   0.26077   0.34278   0.37742
      0.618306   0.11800   0.11811   0.13105   0.17864   0.26077   0.34278   0.37742
      0.647742   0.11800   0.11811   0.13105   0.17864   0.26077   0.34278   0.37742
      0.677177   0.11800   0.11811   0.13105   0.17864   0.26077   0.34278   0.37742
      0.706613   0.11800   0.11811   0.13105   0.17864   0.26077   0.34278   0.37742
      0.736048   0.14341   0.14289   0.15533   0.20508   0.29265   0.38075   0.41806
      0.765484   0.16515   0.16402   0.17600   0.22801   0.32119   0.41550   0.45553
      0.794919   0.16057   0.15993   0.17280   0.22496   0.31707   0.40982   0.44911
      0.824355   0.15679   0.15656   0.17016   0.22245   0.31367   0.40513   0.44382
      0.853790   0.15368   0.15378   0.16799   0.22038   0.31087   0.40126   0.43945
      0.883226   0.15111   0.15148   0.16619   0.21868   0.30856   0.39807   0.43585
      0.912661   0.14899   0.14959   0.16471   0.21727   0.30666   0.39544   0.43288
      0.942097   0.14142   0.14238   0.15801   0.21008   0.29764   0.38424   0.42069
      0.971532   0.04529   0.04763   0.06353   0.10777   0.17799   0.24588   0.27421
      1.000968   0.04995   0.05189   0.06702   0.11093   0.18169   0.25052   0.27930
      1.030403   0.05416   0.05574   0.07017   0.11380   0.18504   0.25471   0.28391
      1.059839   0.05798   0.05923   0.07302   0.11639   0.18807   0.25850   0.28808
      1.089274   0.06143   0.06238   0.07560   0.11873   0.19081   0.26194   0.29185
      1.118710   0.06455   0.06524   0.07794   0.12085   0.19329   0.26504   0.29526
      1.148145   0.06737   0.06782   0.08005   0.12277   0.19554   0.26785   0.29835
      1.177581   0.07389   0.07408   0.08589   0.12872   0.20238   0.27585   0.30687
      1.207016   0.08182   0.08176   0.09321   0.13632   0.21114   0.28602   0.31768
      1.236452   0.08345   0.08325   0.09443   0.13744   0.21248   0.28771   0.31954
      1.265887   0.08491   0.08459   0.09553   0.13845   0.21368   0.28924   0.32122
      1.295323   0.08624   0.08580   0.09652   0.13936   0.21477   0.29061   0.32274
      1.324758   0.08743   0.08689   0.09741   0.14018   0.21575   0.29185   0.32410
      1.354194   0.08850   0.08787   0.09821   0.14092   0.21663   0.29297   0.32533
      1.383629   0.08947   0.08875   0.09894   0.14159   0.21743   0.29398   0.32645
      1.413064  -0.03098  -0.03089  -0.02134   0.01366   0.07402   0.13428   0.15973
      1.442500  -0.03361  -0.03390  -0.02532   0.00862   0.06819   0.12806   0.15341
      1.471936  -0.02850  -0.02920  -0.02149   0.01181   0.07140   0.13169   0.15728
      1.501371  -0.02371  -0.02479  -0.01790   0.01480   0.07441   0.13509   0.16090
      1.530807  -0.01923  -0.02067  -0.01454   0.01761   0.07722   0.13827   0.16429
      1.560242  -0.01503  -0.01681  -0.01140   0.02023   0.07985   0.14125   0.16747
      1.589678  -0.01110  -0.01319  -0.00845   0.02269   0.08232   0.14403   0.17044
      1.619113  -0.01697  -0.01928  -0.01519   0.01504   0.07371   0.13468   0.16081
      1.648548  -0.03610  -0.03855  -0.03511  -0.00642   0.04998   0.10883   0.13408
      1.677984  -0.03190  -0.03468  -0.03196  -0.00384   0.05247   0.11156   0.13697
      1.707419  -0.02794  -0.03103  -0.02899  -0.00141   0.05482   0.11414   0.13969
      1.736855  -0.02421  -0.02759  -0.02620   0.00088   0.05703   0.11657   0.14225
      1.766290  -0.02070  -0.02436  -0.02357   0.00304   0.05912   0.11885   0.14467
      1.795726  -0.01739  -0.02131  -0.02109   0.00507   0.06108   0.12101   0.14694
      1.825161  -0.01427  -0.01844  -0.01876   0.00698   0.06292   0.12304   0.14909
      1.854597  -0.11062  -0.11421  -0.11464  -0.09301  -0.04572   0.00516   0.02722