VARIABLES=X/D,CP(0),CP(30),CP(60),CP(90),CP(120),CP(150),CP(180)
ZONE T="BODY CP AT MACH=  1.50 ALPHA=  0.00"
      0.236626   0.05630   0.05630   0.05630   0.05630   0.05630   0.05630   0.05630
      0.393578   0.05448   0.05448   0.05448   0.05448   0.05448   0.05448   0.05448
      0.550530   0.05264   0.05264   0.05264   0.05264   0.05264   0.05264   0.05264
      0.707483   0.05084   0.05084   0.05084   0.05084   0.05084   0.05084   0.05084
      0.864435   0.04905   0.04905   0.04905   0.04905   0.04905   0.04905   0.04905
      1.021387   0.04728   0.04728   0.04728   0.04728   0.04728   0.04728   0.04728
      1.178340   0.04551   0.04551   0.04551   0.04551   0.04551   0.04551   0.04551
      1.335292   0.04377   0.04377   0.04377   0.04377   0.04377   0.04377   0.04377
      1.492244   0.04203   0.04203   0.04203   0.04203   0.04203   0.04203   0.04203
      1.649197   0.04031   0.04031   0.04031   0.04031   0.04031   0.04031   0.04031
      1.806149   0.03861   0.03861   0.03861   0.03861   0.03861   0.03861   0.03861
      1.963101   0.03693   0.03693   0.03693   0.03693   0.03693   0.03693   0.03693
      2.120054   0.03526   0.03526   0.03526   0.03526   0.03526   0.03526   0.03526
      2.277006   0.03360   0.03360   0.03360   0.03360   0.03360   0.03360   0.03360
      2.433959   0.03196   0.03196   0.03196   0.03196   0.03196   0.03196   0.03196
      2.590911   0.03034   0.03034   0.03034   0.03034   0.03034   0.03034   0.03034
      2.747863   0.02873   0.02873   0.02873   0.02873   0.02873   0.02873   0.02873
      2.904816   0.02714   0.02714   0.02714   0.02714   0.02714   0.02714   0.02714
      3.061768   0.02556   0.02556   0.02556   0.02556   0.02556   0.02556   0.02556
      3.218720   0.02400   0.02400   0.02400   0.02400   0.02400   0.02400   0.02400
      3.375673   0.02246   0.02246   0.02246   0.02246   0.02246   0.02246   0.02246
      3.532625   0.02094   0.02094   0.02094   0.02094   0.02094   0.02094   0.02094
      3.689577   0.01943   0.01943   0.01943   0.01943   0.01943   0.01943   0.01943
      3.846530   0.01793   0.01793   0.01793   0.01793   0.01793   0.01793   0.01793
      4.003482   0.01646   0.01646   0.01646   0.01646   0.01646   0.01646   0.01646
      4.160434   0.01500   0.01500   0.01500   0.01500   0.01500   0.01500   0.01500
      4.317387   0.01356   0.01356   0.01356   0.01356   0.01356   0.01356   0.01356
      4.474339   0.01214   0.01214   0.01214   0.01214   0.01214   0.01214   0.01214
      4.631291   0.01074   0.01074   0.01074   0.01074   0.01074   0.01074   0.01074
      4.788244   0.00935   0.00935   0.00935   0.00935   0.00935   0.00935   0.00935
      4.945197   0.00798   0.00798   0.00798   0.00798   0.00798   0.00798   0.00798
      5.102149   0.00663   0.00663   0.00663   0.00663   0.00663   0.00663   0.00663
      5.259101   0.00530   0.00530   0.00530   0.00530   0.00530   0.00530   0.00530
      5.416053   0.00399   0.00399   0.00399   0.00399   0.00399   0.00399   0.00399
      5.573005   0.00270   0.00270   0.00270   0.00270   0.00270   0.00270   0.00270
      5.729958   0.00142   0.00142   0.00142   0.00142   0.00142   0.00142   0.00142
      5.886910   0.00017   0.00017   0.00017   0.00017   0.00017   0.00017   0.00017
      6.043862  -0.00107  -0.00107  -0.00107  -0.00107  -0.00107  -0.00107  -0.00107
      6.200815  -0.00228  -0.00228  -0.00228  -0.00228  -0.00228  -0.00228  -0.00228
      6.357767  -0.00347  -0.00347  -0.00347  -0.00347  -0.00347  -0.00347  -0.00347
      6.514719  -0.00465  -0.00465  -0.00465  -0.00465  -0.00465  -0.00465  -0.00465
      6.671671  -0.00580  -0.00580  -0.00580  -0.00580  -0.00580  -0.00580  -0.00580
      6.828624  -0.00693  -0.00693  -0.00693  -0.00693  -0.00693  -0.00693  -0.00693
      6.985577  -0.00804  -0.00804  -0.00804  -0.00804  -0.00804  -0.00804  -0.00804
      7.142529  -0.00913  -0.00913  -0.00913  -0.00913  -0.00913  -0.00913  -0.00913
      7.299481  -0.01020  -0.01020  -0.01020  -0.01020  -0.01020  -0.01020  -0.01020
      7.456434  -0.01124  -0.01124  -0.01124  -0.01124  -0.01124  -0.01124  -0.01124
      7.613386  -0.01226  -0.01226  -0.01226  -0.01226  -0.01226  -0.01226  -0.01226
      7.770339  -0.01326  -0.01326  -0.01326  -0.01326  -0.01326  -0.01326  -0.01326
      7.927290  -0.01424  -0.01424  -0.01424  -0.01424  -0.01424  -0.01424  -0.01424
      8.084243  -0.01519  -0.01519  -0.01519  -0.01519  -0.01519  -0.01519  -0.01519
      8.241196  -0.01611  -0.01611  -0.01611  -0.01611  -0.01611  -0.01611  -0.01611
      8.398148  -0.01702  -0.01702  -0.01702  -0.01702  -0.01702  -0.01702  -0.01702
      8.555099  -0.01789  -0.01789  -0.01789  -0.01789  -0.01789  -0.01789  -0.01789
      8.712052  -0.01875  -0.01875  -0.01875  -0.01875  -0.01875  -0.01875  -0.01875
      8.869005  -0.01957  -0.01957  -0.01957  -0.01957  -0.01957  -0.01957  -0.01957
      9.025957  -0.02037  -0.02037  -0.02037  -0.02037  -0.02037  -0.02037  -0.02037
      9.182910  -0.02114  -0.02114  -0.02114  -0.02114  -0.02114  -0.02114  -0.02114
      9.339862  -0.02189  -0.02189  -0.02189  -0.02189  -0.02189  -0.02189  -0.02189
      9.496814  -0.02260  -0.02260  -0.02260  -0.02260  -0.02260  -0.02260  -0.02260
      9.496814  -0.02268  -0.02268  -0.02268  -0.02268  -0.02268  -0.02268  -0.02268
      9.650945  -0.02036  -0.02036  -0.02036  -0.02036  -0.02036  -0.02036  -0.02036
      9.805077  -0.01843  -0.01843  -0.01843  -0.01843  -0.01843  -0.01843  -0.01843
      9.959208  -0.01675  -0.01675  -0.01675  -0.01675  -0.01675  -0.01675  -0.01675
     10.113339  -0.01529  -0.01529  -0.01529  -0.01529  -0.01529  -0.01529  -0.01529
     10.267470  -0.01401  -0.01401  -0.01401  -0.01401  -0.01401  -0.01401  -0.01401
     10.421601  -0.01288  -0.01288  -0.01288  -0.01288  -0.01288  -0.01288  -0.01288
     10.575733  -0.01189  -0.01189  -0.01189  -0.01189  -0.01189  -0.01189  -0.01189
     10.729863  -0.01101  -0.01101  -0.01101  -0.01101  -0.01101  -0.01101  -0.01101
     10.883995  -0.01022  -0.01022  -0.01022  -0.01022  -0.01022  -0.01022  -0.01022
     11.038125  -0.00952  -0.00952  -0.00952  -0.00952  -0.00952  -0.00952  -0.00952
     11.192257  -0.00888  -0.00888  -0.00888  -0.00888  -0.00888  -0.00888  -0.00888
     11.346389  -0.00831  -0.00831  -0.00831  -0.00831  -0.00831  -0.00831  -0.00831
     11.500520  -0.00780  -0.00780  -0.00780  -0.00780  -0.00780  -0.00780  -0.00780
     11.654651  -0.00733  -0.00733  -0.00733  -0.00733  -0.00733  -0.00733  -0.00733
     11.808782  -0.00690  -0.00690  -0.00690  -0.00690  -0.00690  -0.00690  -0.00690
     11.962914  -0.00651  -0.00651  -0.00651  -0.00651  -0.00651  -0.00651  -0.00651
     12.117045  -0.00616  -0.00616  -0.00616  -0.00616  -0.00616  -0.00616  -0.00616
     12.271175  -0.00583  -0.00583  -0.00583  -0.00583  -0.00583  -0.00583  -0.00583
     12.425307  -0.00553  -0.00553  -0.00553  -0.00553  -0.00553  -0.00553  -0.00553
     12.579439  -0.00525  -0.00525  -0.00525  -0.00525  -0.00525  -0.00525  -0.00525
     12.733569  -0.00500  -0.00500  -0.00500  -0.00500  -0.00500  -0.00500  -0.00500
     12.887701  -0.00476  -0.00476  -0.00476  -0.00476  -0.00476  -0.00476  -0.00476
     13.041832  -0.00454  -0.00454  -0.00454  -0.00454  -0.00454  -0.00454  -0.00454
     13.195963  -0.00434  -0.00434  -0.00434  -0.00434  -0.00434  -0.00434  -0.00434
     13.350094  -0.00414  -0.00414  -0.00414  -0.00414  -0.00414  -0.00414  -0.00414
     13.504226  -0.00397  -0.00397  -0.00397  -0.00397  -0.00397  -0.00397  -0.00397
     13.658356  -0.00380  -0.00380  -0.00380  -0.00380  -0.00380  -0.00380  -0.00380
     13.812488  -0.00365  -0.00365  -0.00365  -0.00365  -0.00365  -0.00365  -0.00365
     13.966619  -0.00350  -0.00350  -0.00350  -0.00350  -0.00350  -0.00350  -0.00350
     14.120749  -0.00336  -0.00336  -0.00336  -0.00336  -0.00336  -0.00336  -0.00336
     14.274881  -0.00323  -0.00323  -0.00323  -0.00323  -0.00323  -0.00323  -0.00323
     14.429012  -0.00311  -0.00311  -0.00311  -0.00311  -0.00311  -0.00311  -0.00311
     14.583144  -0.00300  -0.00300  -0.00300  -0.00300  -0.00300  -0.00300  -0.00300
     14.737276  -0.00289  -0.00289  -0.00289  -0.00289  -0.00289  -0.00289  -0.00289
     14.891406  -0.00279  -0.00279  -0.00279  -0.00279  -0.00279  -0.00279  -0.00279
     15.045538  -0.00269  -0.00269  -0.00269  -0.00269  -0.00269  -0.00269  -0.00269
     15.199669  -0.00260  -0.00260  -0.00260  -0.00260  -0.00260  -0.00260  -0.00260
     15.353800  -0.00251  -0.00251  -0.00251  -0.00251  -0.00251  -0.00251  -0.00251
     15.507931  -0.00243  -0.00243  -0.00243  -0.00243  -0.00243  -0.00243  -0.00243
     15.662063  -0.00235  -0.00235  -0.00235  -0.00235  -0.00235  -0.00235  -0.00235
     15.816193  -0.00228  -0.00228  -0.00228  -0.00228  -0.00228  -0.00228  -0.00228
     15.970325  -0.00221  -0.00221  -0.00221  -0.00221  -0.00221  -0.00221  -0.00221
     16.124456  -0.00214  -0.00214  -0.00214  -0.00214  -0.00214  -0.00214  -0.00214
     16.278587  -0.00208  -0.00208  -0.00208  -0.00208  -0.00208  -0.00208  -0.00208
     16.432718  -0.00202  -0.00202  -0.00202  -0.00202  -0.00202  -0.00202  -0.00202
     16.586849  -0.00196  -0.00196  -0.00196  -0.00196  -0.00196  -0.00196  -0.00196
     16.740980  -0.00190  -0.00190  -0.00190  -0.00190  -0.00190  -0.00190  -0.00190
     16.895113  -0.00185  -0.00185  -0.00185  -0.00185  -0.00185  -0.00185  -0.00185
     17.049244  -0.00180  -0.00180  -0.00180  -0.00180  -0.00180  -0.00180  -0.00180
     17.203373  -0.00175  -0.00175  -0.00175  -0.00175  -0.00175  -0.00175  -0.00175
     17.357506  -0.00170  -0.00170  -0.00170  -0.00170  -0.00170  -0.00170  -0.00170
     17.511637  -0.00166  -0.00166  -0.00166  -0.00166  -0.00166  -0.00166  -0.00166
     17.665768  -0.00161  -0.00161  -0.00161  -0.00161  -0.00161  -0.00161  -0.00161
     17.819901  -0.00157  -0.00157  -0.00157  -0.00157  -0.00157  -0.00157  -0.00157
     17.974030  -0.00153  -0.00153  -0.00153  -0.00153  -0.00153  -0.00153  -0.00153
     18.128162  -0.00149  -0.00149  -0.00149  -0.00149  -0.00149  -0.00149  -0.00149
     18.282293  -0.00146  -0.00146  -0.00146  -0.00146  -0.00146  -0.00146  -0.00146
     18.436424  -0.00142  -0.00142  -0.00142  -0.00142  -0.00142  -0.00142  -0.00142
     18.590555  -0.00139  -0.00139  -0.00139  -0.00139  -0.00139  -0.00139  -0.00139
     18.744686  -0.00135  -0.00135  -0.00135  -0.00135  -0.00135  -0.00135  -0.00135
     18.898817  -0.00132  -0.00132  -0.00132  -0.00132  -0.00132  -0.00132  -0.00132
     19.052948  -0.00129  -0.00129  -0.00129  -0.00129  -0.00129  -0.00129  -0.00129
     19.207081  -0.00126  -0.00126  -0.00126  -0.00126  -0.00126  -0.00126  -0.00126
     19.361210  -0.00123  -0.00123  -0.00123  -0.00123  -0.00123  -0.00123  -0.00123
     19.515343  -0.00121  -0.00121  -0.00121  -0.00121  -0.00121  -0.00121  -0.00121
     19.669474  -0.00118  -0.00118  -0.00118  -0.00118  -0.00118  -0.00118  -0.00118
     19.823605  -0.00115  -0.00115  -0.00115  -0.00115  -0.00115  -0.00115  -0.00115
     19.977737  -0.00113  -0.00113  -0.00113  -0.00113  -0.00113  -0.00113  -0.00113
     20.131866  -0.00110  -0.00110  -0.00110  -0.00110  -0.00110  -0.00110  -0.00110
     20.285997  -0.00108  -0.00108  -0.00108  -0.00108  -0.00108  -0.00108  -0.00108
     20.440130  -0.00106  -0.00106  -0.00106  -0.00106  -0.00106  -0.00106  -0.00106
     20.594261  -0.00104  -0.00104  -0.00104  -0.00104  -0.00104  -0.00104  -0.00104
     20.748390  -0.00102  -0.00102  -0.00102  -0.00102  -0.00102  -0.00102  -0.00102
     20.902523  -0.00099  -0.00099  -0.00099  -0.00099  -0.00099  -0.00099  -0.00099
     21.056654  -0.00098  -0.00098  -0.00098  -0.00098  -0.00098  -0.00098  -0.00098
     21.210785  -0.00096  -0.00096  -0.00096  -0.00096  -0.00096  -0.00096  -0.00096
     21.364918  -0.00094  -0.00094  -0.00094  -0.00094  -0.00094  -0.00094  -0.00094
     21.519047  -0.00092  -0.00092  -0.00092  -0.00092  -0.00092  -0.00092  -0.00092
     21.673180  -0.00090  -0.00090  -0.00090  -0.00090  -0.00090  -0.00090  -0.00090
     21.827311  -0.00088  -0.00088  -0.00088  -0.00088  -0.00088  -0.00088  -0.00088
     21.981441  -0.00087  -0.00087  -0.00087  -0.00087  -0.00087  -0.00087  -0.00087
     22.135574  -0.00085  -0.00085  -0.00085  -0.00085  -0.00085  -0.00085  -0.00085
     22.289705  -0.00084  -0.00084  -0.00084  -0.00084  -0.00084  -0.00084  -0.00084
     22.443834  -0.00082  -0.00082  -0.00082  -0.00082  -0.00082  -0.00082  -0.00082
     22.597967  -0.00081  -0.00081  -0.00081  -0.00081  -0.00081  -0.00081  -0.00081
     22.752098  -0.00079  -0.00079  -0.00079  -0.00079  -0.00079  -0.00079  -0.00079
     22.906229  -0.00078  -0.00078  -0.00078  -0.00078  -0.00078  -0.00078  -0.00078
     23.060362  -0.00076  -0.00076  -0.00076  -0.00076  -0.00076  -0.00076  -0.00076
     23.214491  -0.00075  -0.00075  -0.00075  -0.00075  -0.00075  -0.00075  -0.00075
     23.368622  -0.00074  -0.00074  -0.00074  -0.00074  -0.00074  -0.00074  -0.00074
     23.522755  -0.00073  -0.00073  -0.00073  -0.00073  -0.00073  -0.00073  -0.00073
     23.676886  -0.00071  -0.00071  -0.00071  -0.00071  -0.00071  -0.00071  -0.00071
     23.831015  -0.00070  -0.00070  -0.00070  -0.00070  -0.00070  -0.00070  -0.00070
     23.985147  -0.00069  -0.00069  -0.00069  -0.00069  -0.00069  -0.00069  -0.00069
     24.139278  -0.00068  -0.00068  -0.00068  -0.00068  -0.00068  -0.00068  -0.00068
     24.293411  -0.00067  -0.00067  -0.00067  -0.00067  -0.00067  -0.00067  -0.00067
     24.447542  -0.00066  -0.00066  -0.00066  -0.00066  -0.00066  -0.00066  -0.00066
     24.601671  -0.00065  -0.00065  -0.00065  -0.00065  -0.00065  -0.00065  -0.00065
     24.755804  -0.00063  -0.00063  -0.00063  -0.00063  -0.00063  -0.00063  -0.00063
     24.909935  -0.00062  -0.00062  -0.00062  -0.00062  -0.00062  -0.00062  -0.00062
     25.064066  -0.00061  -0.00061  -0.00061  -0.00061  -0.00061  -0.00061  -0.00061
     25.218199  -0.00061  -0.00061  -0.00061  -0.00061  -0.00061  -0.00061  -0.00061
     25.372328  -0.00060  -0.00060  -0.00060  -0.00060  -0.00060  -0.00060  -0.00060
     25.526459  -0.00059  -0.00059  -0.00059  -0.00059  -0.00059  -0.00059  -0.00059
     25.680592  -0.00058  -0.00058  -0.00058  -0.00058  -0.00058  -0.00058  -0.00058
     25.834723  -0.00057  -0.00057  -0.00057  -0.00057  -0.00057  -0.00057  -0.00057
     25.988852  -0.00056  -0.00056  -0.00056  -0.00056  -0.00056  -0.00056  -0.00056
     26.142984  -0.00055  -0.00055  -0.00055  -0.00055  -0.00055  -0.00055  -0.00055
     26.297115  -0.00054  -0.00054  -0.00054  -0.00054  -0.00054  -0.00054  -0.00054
     26.451246  -0.00054  -0.00054  -0.00054  -0.00054  -0.00054  -0.00054  -0.00054
     26.605379  -0.00053  -0.00053  -0.00053  -0.00053  -0.00053  -0.00053  -0.00053
     26.759508  -0.00052  -0.00052  -0.00052  -0.00052  -0.00052  -0.00052  -0.00052
     26.913639  -0.00051  -0.00051  -0.00051  -0.00051  -0.00051  -0.00051  -0.00051
     27.067772  -0.00051  -0.00051  -0.00051  -0.00051  -0.00051  -0.00051  -0.00051
     27.221903  -0.00050  -0.00050  -0.00050  -0.00050  -0.00050  -0.00050  -0.00050
     27.376036  -0.00049  -0.00049  -0.00049  -0.00049  -0.00049  -0.00049  -0.00049
     27.530165  -0.00049  -0.00049  -0.00049  -0.00049  -0.00049  -0.00049  -0.00049
     27.684296  -0.00048  -0.00048  -0.00048  -0.00048  -0.00048  -0.00048  -0.00048
     27.838428  -0.00047  -0.00047  -0.00047  -0.00047  -0.00047  -0.00047  -0.00047
     27.992559  -0.00047  -0.00047  -0.00047  -0.00047  -0.00047  -0.00047  -0.00047
     28.146688  -0.00046  -0.00046  -0.00046  -0.00046  -0.00046  -0.00046  -0.00046
     28.300821  -0.00045  -0.00045  -0.00045  -0.00045  -0.00045  -0.00045  -0.00045
     28.454952  -0.00045  -0.00045  -0.00045  -0.00045  -0.00045  -0.00045  -0.00045
     28.609083  -0.00044  -0.00044  -0.00044  -0.00044  -0.00044  -0.00044  -0.00044
     28.763216  -0.00044  -0.00044  -0.00044  -0.00044  -0.00044  -0.00044  -0.00044
     28.917345  -0.00043  -0.00043  -0.00043  -0.00043  -0.00043  -0.00043  -0.00043
     29.071476  -0.00043  -0.00043  -0.00043  -0.00043  -0.00043  -0.00043  -0.00043
     29.225609  -0.00042  -0.00042  -0.00042  -0.00042  -0.00042  -0.00042  -0.00042
     29.379740  -0.00041  -0.00041  -0.00041  -0.00041  -0.00041  -0.00041  -0.00041
     29.533871  -0.00041  -0.00041  -0.00041  -0.00041  -0.00041  -0.00041  -0.00041
     29.688004  -0.00040  -0.00040  -0.00040  -0.00040  -0.00040  -0.00040  -0.00040
     29.842133  -0.00040  -0.00040  -0.00040  -0.00040  -0.00040  -0.00040  -0.00040
     29.996265  -0.00039  -0.00039  -0.00039  -0.00039  -0.00039  -0.00039  -0.00039
     30.150396  -0.00039  -0.00039  -0.00039  -0.00039  -0.00039  -0.00039  -0.00039
     30.304527  -0.00038  -0.00038  -0.00038  -0.00038  -0.00038  -0.00038  -0.00038
     30.458660  -0.00038  -0.00038  -0.00038  -0.00038  -0.00038  -0.00038  -0.00038
     30.612789  -0.00037  -0.00037  -0.00037  -0.00037  -0.00037  -0.00037  -0.00037
     30.766922  -0.00037  -0.00037  -0.00037  -0.00037  -0.00037  -0.00037  -0.00037
     30.921053  -0.00037  -0.00037  -0.00037  -0.00037  -0.00037  -0.00037  -0.00037
     31.075184  -0.00036  -0.00036  -0.00036  -0.00036  -0.00036  -0.00036  -0.00036
     31.229317  -0.00036  -0.00036  -0.00036  -0.00036  -0.00036  -0.00036  -0.00036
     31.383446  -0.00035  -0.00035  -0.00035  -0.00035  -0.00035  -0.00035  -0.00035
     31.537577  -0.00035  -0.00035  -0.00035  -0.00035  -0.00035  -0.00035  -0.00035
     31.691710  -0.00034  -0.00034  -0.00034  -0.00034  -0.00034  -0.00034  -0.00034
     31.845840  -0.00034  -0.00034  -0.00034  -0.00034  -0.00034  -0.00034  -0.00034
     31.999969  -0.00034  -0.00034  -0.00034  -0.00034  -0.00034  -0.00034  -0.00034
     32.154102  -0.00034  -0.00034  -0.00034  -0.00034  -0.00034  -0.00034  -0.00034
     32.308231  -0.00033  -0.00033  -0.00033  -0.00033  -0.00033  -0.00033  -0.00033
     32.462364  -0.00032  -0.00032  -0.00032  -0.00032  -0.00032  -0.00032  -0.00032
     32.616497  -0.00032  -0.00032  -0.00032  -0.00032  -0.00032  -0.00032  -0.00032
     32.770626  -0.00032  -0.00032  -0.00032  -0.00032  -0.00032  -0.00032  -0.00032
     32.924755  -0.00031  -0.00031  -0.00031  -0.00031  -0.00031  -0.00031  -0.00031
     33.078888  -0.00031  -0.00031  -0.00031  -0.00031  -0.00031  -0.00031  -0.00031
     33.233021  -0.00031  -0.00031  -0.00031  -0.00031  -0.00031  -0.00031  -0.00031
     33.387150  -0.00030  -0.00030  -0.00030  -0.00030  -0.00030  -0.00030  -0.00030
     33.541283  -0.00030  -0.00030  -0.00030  -0.00030  -0.00030  -0.00030  -0.00030
     33.695415  -0.00030  -0.00030  -0.00030  -0.00030  -0.00030  -0.00030  -0.00030
     33.849548  -0.00029  -0.00029  -0.00029  -0.00029  -0.00029  -0.00029  -0.00029
     34.003677  -0.00029  -0.00029  -0.00029  -0.00029  -0.00029  -0.00029  -0.00029
     34.157806  -0.00029  -0.00029  -0.00029  -0.00029  -0.00029  -0.00029  -0.00029
     34.311939  -0.00029  -0.00029  -0.00029  -0.00029  -0.00029  -0.00029  -0.00029
     34.466072  -0.00028  -0.00028  -0.00028  -0.00028  -0.00028  -0.00028  -0.00028
     34.620201  -0.00028  -0.00028  -0.00028  -0.00028  -0.00028  -0.00028  -0.00028
     34.774334  -0.00028  -0.00028  -0.00028  -0.00028  -0.00028  -0.00028  -0.00028
     34.928463  -0.00028  -0.00028  -0.00028  -0.00028  -0.00028  -0.00028  -0.00028
     35.082596  -0.00027  -0.00027  -0.00027  -0.00027  -0.00027  -0.00027  -0.00027
     35.236729  -0.00027  -0.00027  -0.00027  -0.00027  -0.00027  -0.00027  -0.00027
     35.390858  -0.00026  -0.00026  -0.00026  -0.00026  -0.00026  -0.00026  -0.00026
     35.544987  -0.00026  -0.00026  -0.00026  -0.00026  -0.00026  -0.00026  -0.00026
     35.699120  -0.00026  -0.00026  -0.00026  -0.00026  -0.00026  -0.00026  -0.00026
     35.853252  -0.00026  -0.00026  -0.00026  -0.00026  -0.00026  -0.00026  -0.00026
     36.007381  -0.00025  -0.00025  -0.00025  -0.00025  -0.00025  -0.00025  -0.00025
     36.161514  -0.00025  -0.00025  -0.00025  -0.00025  -0.00025  -0.00025  -0.00025
     36.315643  -0.00025  -0.00025  -0.00025  -0.00025  -0.00025  -0.00025  -0.00025
     36.469776  -0.00025  -0.00025  -0.00025  -0.00025  -0.00025  -0.00025  -0.00025
     36.623909  -0.00025  -0.00025  -0.00025  -0.00025  -0.00025  -0.00025  -0.00025
     36.778038  -0.00025  -0.00025  -0.00025  -0.00025  -0.00025  -0.00025  -0.00025
     36.932171  -0.00024  -0.00024  -0.00024  -0.00024  -0.00024  -0.00024  -0.00024
     37.086300  -0.00023  -0.00023  -0.00023  -0.00023  -0.00023  -0.00023  -0.00023
     37.240433  -0.00024  -0.00024  -0.00024  -0.00024  -0.00024  -0.00024  -0.00024
     37.394566  -0.00023  -0.00023  -0.00023  -0.00023  -0.00023  -0.00023  -0.00023
     37.548695  -0.00023  -0.00023  -0.00023  -0.00023  -0.00023  -0.00023  -0.00023
     37.702824  -0.00023  -0.00023  -0.00023  -0.00023  -0.00023  -0.00023  -0.00023
     37.856956  -0.00023  -0.00023  -0.00023  -0.00023  -0.00023  -0.00023  -0.00023
     38.011089  -0.00023  -0.00023  -0.00023  -0.00023  -0.00023  -0.00023  -0.00023
     38.165218  -0.00022  -0.00022  -0.00022  -0.00022  -0.00022  -0.00022  -0.00022
     38.319351  -0.00022  -0.00022  -0.00022  -0.00022  -0.00022  -0.00022  -0.00022
     38.473480  -0.00022  -0.00022  -0.00022  -0.00022  -0.00022  -0.00022  -0.00022
     38.627613  -0.00022  -0.00022  -0.00022  -0.00022  -0.00022  -0.00022  -0.00022
     38.781746  -0.00021  -0.00021  -0.00021  -0.00021  -0.00021  -0.00021  -0.00021
     38.935875  -0.00021  -0.00021  -0.00021  -0.00021  -0.00021  -0.00021  -0.00021
     39.090008  -0.00020  -0.00020  -0.00020  -0.00020  -0.00020  -0.00020  -0.00020
     39.244137  -0.00021  -0.00021  -0.00021  -0.00021  -0.00021  -0.00021  -0.00021
     39.398270  -0.00020  -0.00020  -0.00020  -0.00020  -0.00020  -0.00020  -0.00020
     39.552402  -0.00020  -0.00020  -0.00020  -0.00020  -0.00020  -0.00020  -0.00020
     39.706532  -0.00020  -0.00020  -0.00020  -0.00020  -0.00020  -0.00020  -0.00020
     39.860661  -0.00020  -0.00020  -0.00020  -0.00020  -0.00020  -0.00020  -0.00020
     40.014793  -0.00020  -0.00020  -0.00020  -0.00020  -0.00020  -0.00020  -0.00020
     40.168926  -0.00019  -0.00019  -0.00019  -0.00019  -0.00019  -0.00019  -0.00019
     40.323055  -0.00020  -0.00020  -0.00020  -0.00020  -0.00020  -0.00020  -0.00020
     40.477188  -0.00019  -0.00019  -0.00019  -0.00019  -0.00019  -0.00019  -0.00019
     40.631317  -0.00019  -0.00019  -0.00019  -0.00019  -0.00019  -0.00019  -0.00019
     40.785450  -0.00019  -0.00019  -0.00019  -0.00019  -0.00019  -0.00019  -0.00019
     40.939583  -0.00019  -0.00019  -0.00019  -0.00019  -0.00019  -0.00019  -0.00019
     41.093712  -0.00018  -0.00018  -0.00018  -0.00018  -0.00018  -0.00018  -0.00018
     41.247841  -0.00018  -0.00018  -0.00018  -0.00018  -0.00018  -0.00018  -0.00018
     41.401974  -0.00018  -0.00018  -0.00018  -0.00018  -0.00018  -0.00018  -0.00018
     41.556107  -0.00018  -0.00018  -0.00018  -0.00018  -0.00018  -0.00018  -0.00018
     41.710236  -0.00018  -0.00018  -0.00018  -0.00018  -0.00018  -0.00018  -0.00018
     41.864368  -0.00018  -0.00018  -0.00018  -0.00018  -0.00018  -0.00018  -0.00018
     42.018501  -0.00018  -0.00018  -0.00018  -0.00018  -0.00018  -0.00018  -0.00018
     42.172634  -0.00017  -0.00017  -0.00017  -0.00017  -0.00017  -0.00017  -0.00017
     42.326763  -0.00017  -0.00017  -0.00017  -0.00017  -0.00017  -0.00017  -0.00017
     42.480896  -0.00017  -0.00017  -0.00017  -0.00017  -0.00017  -0.00017  -0.00017
     42.635029  -0.00016  -0.00016  -0.00016  -0.00016  -0.00016  -0.00016  -0.00016
     42.789154  -0.00017  -0.00017  -0.00017  -0.00017  -0.00017  -0.00017  -0.00017
     42.943287  -0.00017  -0.00017  -0.00017  -0.00017  -0.00017  -0.00017  -0.00017
     43.097420  -0.00016  -0.00016  -0.00016  -0.00016  -0.00016  -0.00016  -0.00016
     43.251549  -0.00016  -0.00016  -0.00016  -0.00016  -0.00016  -0.00016  -0.00016
     43.405682  -0.00016  -0.00016  -0.00016  -0.00016  -0.00016  -0.00016  -0.00016
     43.559814  -0.00016  -0.00016  -0.00016  -0.00016  -0.00016  -0.00016  -0.00016
     43.713943  -0.00016  -0.00016  -0.00016  -0.00016  -0.00016  -0.00016  -0.00016
     43.868076  -0.00016  -0.00016  -0.00016  -0.00016  -0.00016  -0.00016  -0.00016
     44.022209  -0.00016  -0.00016  -0.00016  -0.00016  -0.00016  -0.00016  -0.00016
     44.176334  -0.00016  -0.00016  -0.00016  -0.00016  -0.00016  -0.00016  -0.00016
     44.330467  -0.00015  -0.00015  -0.00015  -0.00015  -0.00015  -0.00015  -0.00015
     44.484600  -0.00015  -0.00015  -0.00015  -0.00015  -0.00015  -0.00015  -0.00015
     44.484600  -0.22502  -0.22502  -0.22502  -0.22502  -0.22502  -0.22502  -0.22502
     44.659325  -0.18056  -0.18056  -0.18056  -0.18056  -0.18056  -0.18056  -0.18056
     44.834042  -0.15246  -0.15246  -0.15246  -0.15246  -0.15246  -0.15246  -0.15246
     45.008766  -0.12699  -0.12699  -0.12699  -0.12699  -0.12699  -0.12699  -0.12699
     45.183483  -0.10521  -0.10521  -0.10521  -0.10521  -0.10521  -0.10521  -0.10521
     45.358208  -0.08601  -0.08601  -0.08601  -0.08601  -0.08601  -0.08601  -0.08601
     45.532925  -0.06923  -0.06923  -0.06923  -0.06923  -0.06923  -0.06923  -0.06923
     45.707645  -0.05436  -0.05436  -0.05436  -0.05436  -0.05436  -0.05436  -0.05436
     45.882366  -0.04119  -0.04119  -0.04119  -0.04119  -0.04119  -0.04119  -0.04119
     46.057087  -0.02945  -0.02945  -0.02945  -0.02945  -0.02945  -0.02945  -0.02945
ZONE T="BODY CP AT MACH=  1.50 ALPHA=  8.00"
      0.236626   0.01744   0.00736  -0.00713   0.00298   0.04897   0.10834   0.13627
      0.393578   0.01610   0.00596  -0.00871   0.00117   0.04691   0.10608   0.13393
      0.550530   0.01540   0.00506  -0.01009  -0.00079   0.04441   0.10318   0.13089
      0.707483   0.01447   0.00399  -0.01152  -0.00265   0.04213   0.10060   0.12819
      0.864435   0.01357   0.00294  -0.01294  -0.00452   0.03983   0.09798   0.12545
      1.021387   0.01268   0.00190  -0.01434  -0.00636   0.03757   0.09540   0.12275
      1.178340   0.01181   0.00088  -0.01573  -0.00820   0.03530   0.09281   0.12004
      1.335292   0.01096  -0.00012  -0.01710  -0.01002   0.03305   0.09024   0.11735
      1.492244   0.01012  -0.00110  -0.01845  -0.01182   0.03082   0.08768   0.11467
      1.649197   0.00931  -0.00207  -0.01979  -0.01361   0.02860   0.08514   0.11200
      1.806149   0.00850  -0.00302  -0.02111  -0.01538   0.02640   0.08262   0.10936
      1.963101   0.00772  -0.00396  -0.02241  -0.01713   0.02421   0.08010   0.10672
      2.120054   0.00696  -0.00487  -0.02370  -0.01887   0.02204   0.07760   0.10410
      2.277006   0.00622  -0.00576  -0.02497  -0.02060   0.01987   0.07511   0.10148
      2.433959   0.00549  -0.00664  -0.02622  -0.02230   0.01773   0.07264   0.09888
      2.590911   0.00478  -0.00750  -0.02745  -0.02399   0.01561   0.07018   0.09630
      2.747863   0.00410  -0.00834  -0.02867  -0.02567   0.01349   0.06773   0.09372
      2.904816   0.00343  -0.00916  -0.02987  -0.02733   0.01139   0.06529   0.09115
      3.061768   0.00279  -0.00996  -0.03105  -0.02897   0.00930   0.06286   0.08860
      3.218720   0.00216  -0.01074  -0.03221  -0.03059   0.00723   0.06046   0.08607
      3.375673   0.00156  -0.01150  -0.03335  -0.03219   0.00518   0.05806   0.08354
      3.532625   0.00097  -0.01225  -0.03448  -0.03378   0.00315   0.05569   0.08104
      3.689577   0.00041  -0.01297  -0.03558  -0.03535   0.00112   0.05332   0.07854
      3.846530  -0.00014  -0.01367  -0.03667  -0.03691  -0.00088   0.05097   0.07606
      4.003482  -0.00066  -0.01435  -0.03774  -0.03844  -0.00287   0.04864   0.07359
      4.160434  -0.00116  -0.01501  -0.03879  -0.03996  -0.00484   0.04631   0.07113
      4.317387  -0.00165  -0.01565  -0.03982  -0.04146  -0.00680   0.04401   0.06869
      4.474339  -0.00210  -0.01626  -0.04082  -0.04294  -0.00874   0.04171   0.06626
      4.631291  -0.00254  -0.01686  -0.04181  -0.04441  -0.01066   0.03944   0.06385
      4.788244  -0.00295  -0.01744  -0.04278  -0.04585  -0.01257   0.03718   0.06145
      4.945197  -0.00335  -0.01799  -0.04373  -0.04727  -0.01445   0.03494   0.05907
      5.102149  -0.00372  -0.01853  -0.04466  -0.04868  -0.01632   0.03271   0.05671
      5.259101  -0.00407  -0.01903  -0.04556  -0.05007  -0.01817   0.03049   0.05435
      5.416053  -0.00440  -0.01952  -0.04645  -0.05143  -0.02000   0.02830   0.05202
      5.573005  -0.00470  -0.01999  -0.04732  -0.05278  -0.02182   0.02612   0.04970
      5.729958  -0.00498  -0.02043  -0.04816  -0.05411  -0.02361   0.02396   0.04740
      5.886910  -0.00524  -0.02085  -0.04898  -0.05541  -0.02539   0.02182   0.04511
      6.043862  -0.00547  -0.02125  -0.04978  -0.05670  -0.02715   0.01969   0.04284
      6.200815  -0.00568  -0.02162  -0.05056  -0.05796  -0.02889   0.01758   0.04059
      6.357767  -0.00586  -0.02198  -0.05131  -0.05920  -0.03061   0.01550   0.03835
      6.514719  -0.00602  -0.02230  -0.05204  -0.06043  -0.03231   0.01342   0.03613
      6.671671  -0.00616  -0.02260  -0.05275  -0.06163  -0.03399   0.01137   0.03393
      6.828624  -0.00627  -0.02288  -0.05344  -0.06280  -0.03564   0.00934   0.03175
      6.985577  -0.00635  -0.02313  -0.05410  -0.06396  -0.03728   0.00732   0.02959
      7.142529  -0.00642  -0.02336  -0.05474  -0.06509  -0.03889   0.00533   0.02745
      7.299481  -0.00645  -0.02357  -0.05535  -0.06619  -0.04048   0.00336   0.02533
      7.456434  -0.00646  -0.02374  -0.05594  -0.06728  -0.04205   0.00140   0.02322
      7.613386  -0.00644  -0.02389  -0.05650  -0.06834  -0.04360  -0.00053   0.02114
      7.770339  -0.00640  -0.02402  -0.05704  -0.06937  -0.04512  -0.00244   0.01908